ITEM: TIMESTEP
2000
ITEM: NUMBER OF ATOMS
256
ITEM: BOX BOUNDS
0 6.71838
0 6.71838
0 6.71838
ITEM: ATOMS id type x y z 
69 1 0.0323468 0.544464 1.44332 
81 1 1.48325 0.267574 0.165656 
7 1 1.30105 0.594954 1.13602 
26 1 0.113969 0.243496 0.425759 
73 1 2.98352 1.40117 1.6334 
172 1 1.92258 1.3065 0.487243 
103 1 2.73353 0.668701 1.0216 
10 1 2.90371 1.44434 0.499825 
23 1 4.84198 0.990058 0.945331 
91 1 4.04501 0.907259 1.67544 
9 1 3.60472 0.0281374 0.894429 
153 1 3.75238 1.48288 0.965971 
223 1 4.36423 0.439136 0.283398 
11 1 5.71069 0.324048 0.873012 
46 1 5.82501 1.23247 1.09354 
108 1 6.64615 1.41445 0.252344 
4 1 0.19482 1.81195 1.19318 
32 1 1.37338 2.15619 0.78536 
33 1 0.00214234 2.86123 1.19298 
126 1 0.0151529 3.17355 0.17133 
94 1 0.876229 3.13767 0.619913 
229 1 0.610683 2.28495 0.155318 
66 1 3.23961 2.73712 1.59569 
85 1 2.54262 2.46569 0.751489 
20 1 1.83431 3.20503 0.0714573 
134 1 1.69698 2.84412 1.38617 
12 1 4.25792 1.76066 0.167668 
45 1 3.62273 2.74775 0.675262 
104 1 4.40787 2.51847 1.15423 
240 1 4.77398 2.63722 0.135398 
89 1 5.2397 1.7687 1.62015 
48 1 5.15961 3.30167 1.39779 
145 1 5.72476 3.05613 0.498494 
29 1 6.07893 2.18917 0.558424 
18 1 0.59937 4.35274 0.121876 
40 1 1.64362 3.89869 0.840708 
52 1 0.806701 5.01282 0.935629 
225 1 0.565054 3.79737 1.53649 
37 1 1.6738 4.72879 1.38277 
231 1 1.57453 4.70386 0.146005 
105 1 2.68385 4.41134 0.882507 
230 1 2.72495 3.41511 0.674629 
233 1 2.50064 4.12644 0.011339 
39 1 4.42747 3.79547 0.703952 
44 1 3.64134 4.88805 1.06618 
121 1 3.39389 4.31316 0.314076 
123 1 3.54278 3.59576 1.23546 
61 1 5.26868 4.19811 0.567126 
114 1 6.56598 4.91618 1.13841 
228 1 6.21264 4.00278 0.0761704 
53 1 1.56334 5.92737 0.210555 
133 1 0.423313 5.88042 0.616041 
16 1 2.17309 5.88425 0.993017 
55 1 3.12337 5.67923 1.26379 
58 1 2.60527 5.36541 0.0434498 
135 1 2.51846 6.53049 0.168719 
204 1 4.99251 6.51685 1.28283 
122 1 4.68984 5.12096 0.582805 
59 1 4.34056 5.46688 1.55791 
57 1 3.71841 5.37434 0.0830423 
13 1 4.36236 6.12079 0.474407 
74 1 6.22918 6.11962 0.814643 
42 1 5.55532 5.54078 0.2446 
177 1 5.63828 5.36002 1.30804 
244 1 0.825879 1.18418 1.89896 
118 1 1.08402 0.116143 2.74446 
124 1 1.61414 0.884498 2.81488 
146 1 0.557607 1.17234 2.89421 
3 1 1.94725 1.18674 1.74773 
76 1 2.67253 0.653013 2.54998 
86 1 2.6504 1.52017 3.12314 
232 1 2.14446 0.0827432 1.82871 
182 1 3.36335 0.085245 2.98635 
187 1 4.2787 0.553723 3.29753 
138 1 3.70725 1.32543 2.71752 
139 1 4.82072 1.44744 2.8048 
77 1 6.48189 0.551538 2.72524 
64 1 6.39963 1.38707 1.94804 
144 1 5.36718 0.549727 3.00879 
47 1 5.33182 0.565861 2.00128 
149 1 5.92269 1.56805 2.72056 
71 1 1.49592 1.99087 1.85083 
127 1 1.1814 2.06436 2.81207 
80 1 0.99251 2.83775 2.12541 
142 1 0.422631 2.0412 2.21264 
157 1 1.23512 3.11742 3.3105 
38 1 2.4613 1.94702 2.20264 
88 1 2.00382 2.99198 2.63736 
159 1 3.07013 2.52951 3.16709 
90 1 4.01641 1.96129 1.87568 
169 1 4.22931 3.05918 1.9418 
173 1 5.02803 2.51379 2.20555 
217 1 4.13058 2.25683 2.89091 
158 1 5.13263 2.43104 3.23875 
154 1 6.08028 2.41667 1.7497 
111 1 6.67308 3.13785 2.65034 
79 1 5.78964 3.25403 2.17882 
75 1 1.56214 4.9513 2.45151 
162 1 0.655011 4.67874 1.84914 
181 1 1.47482 3.82376 2.01755 
164 1 0.774156 4.60622 3.01595 
35 1 3.21107 4.33967 1.90609 
106 1 2.63763 4.60469 2.91252 
165 1 2.8398 3.66961 2.92483 
234 1 1.83203 4.08505 3.07794 
43 1 2.44865 3.65567 1.72224 
166 1 4.90618 3.94559 2.60241 
101 1 3.90536 4.37679 2.56239 
107 1 4.28573 4.12009 1.69289 
92 1 3.69284 3.37191 3.13634 
99 1 6.52387 4.23427 2.87691 
113 1 6.34478 4.11155 1.88412 
96 1 5.36426 4.51915 1.99523 
70 1 0.178819 6.17583 1.77571 
51 1 1.03021 5.73705 1.77719 
191 1 0.0186424 5.32384 2.15982 
174 1 0.543317 6.00881 2.70299 
97 1 2.59224 5.13111 1.94047 
116 1 2.68895 5.80775 2.78093 
120 1 2.30596 6.67988 3.19994 
248 1 3.20047 6.6553 1.9476 
27 1 3.62178 5.23489 2.15096 
141 1 4.13536 6.71548 2.33947 
60 1 4.50625 5.2281 2.66286 
83 1 4.73989 6.0411 3.33897 
93 1 6.13866 6.21148 2.73714 
65 1 5.99649 6.53923 1.80406 
100 1 5.54826 5.42696 2.75934 
128 1 5.04454 6.26487 2.40901 
152 1 6.37287 5.18781 3.11389 
19 1 0.11749 1.67621 4.50746 
132 1 1.02821 1.15617 3.89527 
147 1 0.656068 0.716995 4.66683 
202 1 1.60707 0.875809 4.9148 
188 1 3.23476 1.1187 3.88998 
87 1 2.09823 1.18296 4.08351 
252 1 3.03221 0.0903123 3.98408 
227 1 2.71585 0.656013 4.94422 
197 1 1.81692 0.000728414 4.41155 
28 1 3.76654 1.2406 4.84553 
190 1 4.24522 0.629893 4.24868 
207 1 4.96504 1.55481 4.89158 
192 1 4.4888 1.40623 3.69181 
95 1 6.67333 0.972258 3.76746 
208 1 5.75924 1.0579 4.12296 
129 1 5.09547 0.300699 4.03657 
193 1 6.1027 0.139544 3.70394 
255 1 6.60973 0.126927 4.58659 
82 1 1.6012 2.1983 3.80952 
209 1 0.314653 2.05055 3.49988 
213 1 1.67427 2.24355 4.88646 
49 1 0.838541 2.80424 4.21721 
168 1 2.16741 3.08391 3.77437 
25 1 2.63873 2.13287 4.26395 
36 1 2.6953 2.93713 5.01779 
155 1 3.44801 3.17948 4.38359 
205 1 3.73181 2.19485 3.93844 
224 1 4.21389 2.22585 4.92512 
56 1 6.03156 3.01771 3.49692 
84 1 5.26498 2.40945 4.34176 
176 1 6.09249 1.89085 3.82195 
2 1 6.62508 2.57409 4.44259 
245 1 1.04587 4.70731 4.35539 
216 1 0.844293 3.82141 4.0377 
186 1 2.0091 4.86966 3.8017 
150 1 2.56719 4.00993 3.8078 
151 1 1.69276 3.56589 4.86175 
171 1 2.42013 4.92939 4.95486 
237 1 3.04279 4.00295 4.82245 
117 1 4.69399 3.38532 3.45745 
160 1 3.54 4.30294 3.71113 
161 1 3.88034 4.77826 4.96167 
189 1 4.54845 4.43293 3.61829 
156 1 4.20072 3.83419 4.41942 
15 1 5.68419 4.50882 4.96121 
163 1 5.67081 4.26709 3.62224 
222 1 6.32634 3.61418 4.1445 
243 1 5.13352 3.618 4.33247 
183 1 5.55542 5.01308 4.11299 
30 1 6.70574 4.5934 3.9051 
180 1 6.67098 3.939 5.03308 
67 1 1.37681 6.08941 3.63079 
34 1 0.575425 5.39532 3.57606 
178 1 0.487897 6.68179 3.68919 
184 1 1.46648 5.55073 4.56104 
242 1 0.204656 5.15193 4.67415 
143 1 0.643127 6.06064 4.51011 
137 1 2.58159 6.44402 5.03191 
249 1 2.48521 5.78194 3.87901 
54 1 3.25594 5.55563 4.51175 
119 1 3.92579 5.39967 3.38752 
170 1 3.88372 6.28903 3.96406 
241 1 4.50898 5.55158 4.41179 
115 1 6.47129 5.74909 4.0198 
253 1 5.62642 6.0246 4.61414 
14 1 0.899761 1.33684 6.6462 
72 1 1.54631 1.19412 5.8549 
167 1 0.444812 1.42352 5.60464 
200 1 0.975408 0.445588 6.06675 
5 1 2.63524 0.880936 6.48878 
17 1 2.35829 1.56347 5.29999 
136 1 2.14515 0.00218751 5.89727 
198 1 3.16938 0.142071 5.83443 
8 1 3.75303 0.813546 6.35581 
98 1 3.78833 0.0700695 5.10776 
218 1 4.70557 0.269877 5.90377 
201 1 4.4516 1.16807 5.67013 
185 1 5.38439 0.986737 5.56428 
206 1 6.70429 0.732925 6.24306 
212 1 6.42182 0.877914 5.24383 
199 1 5.8292 0.88252 6.67246 
31 1 1.22136 2.1294 5.93415 
63 1 0.170703 2.47806 5.47651 
125 1 0.844462 3.24254 6.18059 
226 1 0.734477 3.25854 5.24648 
24 1 1.73865 2.8864 5.79068 
21 1 2.29432 2.15383 6.39127 
148 1 3.26042 2.04016 5.20844 
215 1 2.87454 3.15199 6.39121 
140 1 3.19648 1.72317 6.1996 
41 1 3.59176 3.26692 5.31202 
22 1 3.93068 2.57512 6.07357 
110 1 5.11396 2.25652 5.85332 
109 1 5.80896 1.98083 5.21019 
220 1 5.21924 1.75639 6.69935 
196 1 6.27319 1.78865 6.03253 
239 1 5.87041 2.76581 6.13011 
235 1 5.29249 3.02012 5.33822 
62 1 0.203279 4.76841 5.57938 
210 1 1.57036 3.94732 6.1164 
214 1 1.29159 4.77402 5.35618 
236 1 2.61581 4.27764 5.73935 
78 1 4.43581 4.78639 6.3679 
175 1 4.72444 4.05098 5.50574 
251 1 3.59477 4.53177 5.9966 
247 1 4.02184 3.58916 6.53535 
254 1 4.97032 3.60256 6.29099 
238 1 6.63404 3.47166 5.97946 
50 1 5.69011 4.68816 6.25717 
194 1 1.22184 6.59391 5.18445 
130 1 1.28345 6.25285 6.04109 
195 1 0.0391188 6.62929 5.48783 
203 1 0.795333 5.37985 6.38148 
6 1 0.834235 5.60766 5.35015 
131 1 1.90531 5.10587 6.00806 
102 1 2.96537 5.72812 5.66085 
112 1 4.92451 5.18351 5.31472 
256 1 3.6091 6.35815 6.5934 
179 1 4.82872 6.36129 5.1705 
219 1 4.76149 5.95544 6.06394 
250 1 3.93255 5.66555 5.52899 
68 1 6.42701 5.35963 6.25703 
221 1 6.39383 6.30035 6.42274 
211 1 5.69099 6.43519 5.79055 
1 1 5.416 6.68086 6.60419 
246 1 6.25754 5.56206 5.32029 
ITEM: TIMESTEP
2010
ITEM: NUMBER OF ATOMS
256
ITEM: BOX BOUNDS
0 6.71838
0 6.71838
0 6.71838
ITEM: ATOMS id type x y z 
69 1 6.70852 0.576254 1.29469 
81 1 1.54142 0.3081 0.20765 
7 1 1.32314 0.61972 1.17705 
26 1 0.117732 0.152742 0.417598 
73 1 3.00537 1.36749 1.59546 
172 1 1.91659 1.23647 0.451657 
103 1 2.7557 0.567629 0.995712 
10 1 2.93456 1.55248 0.472071 
23 1 4.7951 1.02258 0.995268 
91 1 4.00317 0.846817 1.71365 
9 1 3.5722 0.0562617 0.918327 
153 1 3.82068 1.50731 0.921006 
223 1 4.38782 0.421348 0.373042 
11 1 5.86733 0.262265 0.858938 
46 1 5.86885 1.22785 1.09911 
108 1 6.65967 1.44972 0.288746 
4 1 0.315046 1.9288 1.17041 
32 1 1.27426 2.17694 0.775132 
33 1 0.0155606 2.86297 1.12168 
126 1 0.0236705 3.08483 0.208726 
94 1 0.991184 3.12312 0.575654 
229 1 0.558242 2.26648 0.0932141 
66 1 3.32368 2.66865 1.69934 
85 1 2.54258 2.39753 0.705251 
20 1 1.77023 3.20861 0.0934363 
134 1 1.82799 2.87881 1.29189 
12 1 4.31405 1.78077 0.167293 
45 1 3.57186 2.76298 0.560336 
104 1 4.45766 2.61579 1.17567 
240 1 4.81062 2.69065 0.126207 
89 1 5.26603 1.83585 1.58871 
48 1 5.18913 3.31937 1.35525 
145 1 5.6596 3.1011 0.43254 
29 1 6.13329 2.19301 0.479094 
18 1 0.566606 4.31804 0.249597 
40 1 1.50908 3.91381 0.770227 
52 1 0.88117 4.98373 0.863238 
225 1 0.656461 3.62925 1.35644 
37 1 1.59517 4.80366 1.4471 
231 1 1.5571 4.62487 0.0929764 
105 1 2.51392 4.55859 1.04514 
230 1 2.77961 3.42322 0.704304 
233 1 2.51455 4.1733 6.66916 
39 1 4.45349 3.84371 0.686615 
44 1 3.68177 4.93725 1.05245 
121 1 3.44858 4.23397 0.335326 
123 1 3.53345 3.6259 1.25936 
61 1 5.40487 4.20518 0.65315 
114 1 6.62645 4.83484 1.12501 
228 1 6.15948 4.04248 0.0615454 
53 1 1.66977 5.67359 0.174534 
133 1 0.519287 6.0047 0.684639 
16 1 2.18444 5.8985 1.04325 
55 1 3.13395 5.75752 1.28426 
58 1 2.60572 5.33362 0.0447657 
135 1 2.58386 6.45094 0.144514 
204 1 4.98912 6.53386 1.25507 
122 1 4.72657 5.11201 0.547584 
59 1 4.41473 5.51375 1.52509 
57 1 3.75179 5.43537 6.63444 
13 1 4.42185 6.04614 0.461981 
74 1 6.15919 6.11638 0.880582 
42 1 5.59556 5.54648 0.248091 
177 1 5.68217 5.32872 1.2764 
244 1 0.815954 1.10813 1.75522 
118 1 1.06318 0.139533 2.65057 
124 1 1.55027 1.02343 2.90562 
146 1 0.537673 1.18176 2.9047 
3 1 1.95144 1.19074 1.76834 
76 1 2.66885 0.815971 2.53573 
86 1 2.56461 1.63771 3.19959 
232 1 2.11523 0.0340173 1.88501 
182 1 3.31207 0.0244255 2.96243 
187 1 4.25961 0.611705 3.19459 
138 1 3.74032 1.26705 2.7424 
139 1 4.82422 1.32528 2.76669 
77 1 6.52401 0.494311 2.8095 
64 1 6.52121 1.37081 1.90075 
144 1 5.35469 0.511773 3.05158 
47 1 5.27828 0.536086 2.05598 
149 1 5.98489 1.62167 2.75471 
71 1 1.43368 2.08703 1.74994 
127 1 1.22241 2.04973 2.83284 
80 1 0.921785 3.01802 2.0721 
142 1 0.367397 2.02657 2.3014 
157 1 1.14557 3.13024 3.28603 
38 1 2.43501 1.916 2.28824 
88 1 1.98553 3.01744 2.6263 
159 1 3.09481 2.64213 3.06493 
90 1 3.99114 1.95569 1.84258 
169 1 4.12142 3.16955 2.01673 
173 1 5.00456 2.58931 2.2235 
217 1 4.15993 2.25093 2.84307 
158 1 5.15207 2.32522 3.24602 
154 1 6.0438 2.39071 1.8438 
111 1 0.00106131 3.08822 2.65326 
79 1 5.77501 3.28477 2.16896 
75 1 1.60841 4.82643 2.46256 
162 1 0.668969 4.73479 1.84055 
181 1 1.61116 3.91187 2.03679 
164 1 0.731416 4.55179 3.06702 
35 1 3.19596 4.29653 1.81375 
106 1 2.76497 4.73806 2.90706 
165 1 2.73399 3.6201 2.8714 
234 1 1.77051 4.14674 3.06117 
43 1 2.47294 3.73606 1.71036 
166 1 4.8465 3.96618 2.69561 
101 1 3.9501 4.33741 2.69895 
107 1 4.31192 4.08186 1.71143 
92 1 3.72084 3.37122 3.09147 
99 1 6.56724 4.17689 2.85613 
113 1 6.27518 4.10708 1.77467 
96 1 5.37066 4.67344 2.12814 
70 1 0.257742 6.25456 1.80923 
51 1 1.06878 5.63417 1.79424 
191 1 6.70617 5.32824 2.21056 
174 1 0.619095 6.03389 2.8363 
97 1 2.49655 5.16831 1.95464 
116 1 2.69881 5.78579 2.8609 
120 1 2.25338 6.67215 3.15118 
248 1 3.11678 6.64289 2.00267 
27 1 3.58978 5.26342 2.14703 
141 1 4.14376 6.70805 2.36404 
60 1 4.46216 5.16254 2.61293 
83 1 4.73829 5.89677 3.39642 
93 1 6.30135 6.26275 2.68271 
65 1 5.87314 6.39236 1.80414 
100 1 5.41233 5.39164 2.84396 
128 1 4.99947 6.26067 2.3846 
152 1 6.46934 5.17242 3.11594 
19 1 0.159435 1.64283 4.41354 
132 1 1.10169 1.14119 3.79783 
147 1 0.663427 0.738446 4.69969 
202 1 1.59564 0.869367 4.94778 
188 1 3.28398 1.08253 4.0172 
87 1 1.99097 1.28543 4.09833 
252 1 2.87811 0.110198 3.98065 
227 1 2.80087 0.730866 4.87511 
197 1 1.77377 0.0100597 4.39249 
28 1 3.64831 1.28518 4.91945 
190 1 4.15741 0.568438 4.36829 
207 1 4.98762 1.61409 4.82055 
192 1 4.51421 1.46271 3.79724 
95 1 6.65824 0.99891 3.67855 
208 1 5.68045 1.07755 4.12774 
129 1 5.04766 0.2411 4.02888 
193 1 6.04374 0.111876 3.7413 
255 1 6.4803 0.10314 4.57516 
82 1 1.58625 2.15203 3.81252 
209 1 0.358783 2.05444 3.42952 
213 1 1.64312 2.22652 4.91062 
49 1 0.879581 2.73926 4.22818 
168 1 2.10975 3.00323 3.71246 
25 1 2.62522 2.11794 4.2797 
36 1 2.59107 2.96518 5.02979 
155 1 3.47922 3.09701 4.34443 
205 1 3.68232 2.14714 3.86561 
224 1 4.19229 2.25913 5.04683 
56 1 5.99808 3.0287 3.44405 
84 1 5.23408 2.46709 4.2033 
176 1 6.03492 1.98753 3.77365 
2 1 6.54146 2.61305 4.34761 
245 1 1.06926 4.65886 4.31928 
216 1 0.736996 3.74981 3.9095 
186 1 1.94863 4.87968 3.76643 
150 1 2.64693 3.89973 3.81686 
151 1 1.6661 3.52955 4.87927 
171 1 2.37649 4.9767 4.90494 
237 1 3.07339 4.05551 4.77647 
117 1 4.75742 3.40254 3.47157 
160 1 3.55114 4.32131 3.61767 
161 1 3.96824 4.65796 4.93149 
189 1 4.5273 4.38385 3.6063 
156 1 4.16056 3.85754 4.43029 
15 1 5.72223 4.50563 5.0071 
163 1 5.59266 4.28019 3.54879 
222 1 6.43592 3.53605 4.22374 
243 1 5.22517 3.5289 4.36212 
183 1 5.45262 5.11545 4.2391 
30 1 6.69869 4.61387 3.85972 
180 1 6.65656 3.79711 5.08838 
67 1 1.43553 6.00221 3.55345 
34 1 0.610037 5.38699 3.57316 
178 1 0.3949 6.711 3.79413 
184 1 1.56601 5.58827 4.63556 
242 1 0.204511 5.14859 4.71005 
143 1 0.601335 6.12314 4.49863 
137 1 2.57203 6.36234 5.0399 
249 1 2.51701 5.82495 3.82497 
54 1 3.25447 5.59894 4.56633 
119 1 3.91137 5.39611 3.45033 
170 1 3.95668 6.36227 3.88397 
241 1 4.46248 5.40846 4.2742 
115 1 6.47588 5.74301 4.05905 
253 1 5.57411 5.95996 4.71555 
14 1 0.970092 1.40972 6.65245 
72 1 1.59379 1.12282 5.85777 
167 1 0.606638 1.49239 5.4929 
200 1 0.885613 0.403142 6.00576 
5 1 2.66884 0.844155 6.48411 
17 1 2.40994 1.60918 5.29008 
136 1 2.19717 0.0518547 6.02197 
198 1 3.0929 0.181932 5.80338 
8 1 3.72998 0.820663 6.42955 
98 1 3.74084 0.0241797 5.09777 
218 1 4.69652 0.254556 6.08745 
201 1 4.43716 1.10725 5.63816 
185 1 5.47497 1.0551 5.5351 
206 1 6.64894 0.677462 6.28266 
212 1 6.42034 0.870134 5.27016 
199 1 5.78579 0.925186 0.00212289 
31 1 1.14885 2.05414 5.95031 
63 1 0.0919393 2.42458 5.43309 
125 1 0.85549 3.24322 6.32598 
226 1 0.834422 3.3713 5.30791 
24 1 1.66187 2.89639 5.77771 
21 1 2.25752 2.12531 6.37822 
148 1 3.2929 2.13859 5.27416 
215 1 2.93773 2.97045 6.30018 
140 1 3.15276 1.77428 6.1644 
41 1 3.62876 3.30421 5.34461 
22 1 3.99511 2.49272 6.05763 
110 1 5.02233 2.11238 5.82964 
109 1 5.83474 2.02051 5.22449 
220 1 5.26784 1.77659 6.68941 
196 1 6.3305 1.80548 6.1678 
239 1 5.86283 2.81059 6.10999 
235 1 5.27933 2.99003 5.31028 
62 1 0.116481 4.70352 5.56771 
210 1 1.4693 4.02414 6.08304 
214 1 1.29213 4.72668 5.29815 
236 1 2.60848 4.19833 5.65819 
78 1 4.46748 4.84115 6.3859 
175 1 4.78244 4.1449 5.45109 
251 1 3.5334 4.50813 5.9698 
247 1 3.96013 3.62906 6.51526 
254 1 5.0301 3.6314 6.34425 
238 1 6.64129 3.51975 6.01727 
50 1 5.56865 4.81046 6.25312 
194 1 1.32619 6.58088 5.24142 
130 1 1.33766 6.17279 6.13155 
195 1 0.0961434 6.51471 5.50438 
203 1 0.802578 5.49509 6.39377 
6 1 0.814038 5.65969 5.36078 
131 1 1.98634 5.17441 6.03954 
102 1 2.89055 5.62073 5.87413 
112 1 4.9173 5.19647 5.38568 
256 1 3.7206 6.4993 6.55151 
179 1 4.76244 6.41071 5.0564 
219 1 4.67256 5.97466 6.10872 
250 1 3.93599 5.74119 5.48856 
68 1 6.40035 5.28066 6.28529 
221 1 6.44842 6.25427 6.38131 
211 1 5.72492 6.3914 5.65258 
1 1 5.4156 6.55573 0.0168151 
246 1 6.25777 5.67933 5.27844 
ITEM: TIMESTEP
2020
ITEM: NUMBER OF ATOMS
256
ITEM: BOX BOUNDS
0 6.71838
0 6.71838
0 6.71838
ITEM: ATOMS id type x y z 
69 1 0.0135234 0.608247 1.2095 
81 1 1.59905 0.301359 0.206501 
7 1 1.41867 0.539992 1.12311 
26 1 0.139595 0.100688 0.383339 
73 1 3.05383 1.34597 1.56783 
172 1 1.91594 1.20635 0.433899 
103 1 2.68217 0.474317 0.961461 
10 1 2.99346 1.59768 0.418006 
23 1 4.80885 1.11495 1.11051 
91 1 3.96027 0.766887 1.77293 
9 1 3.5996 0.03132 0.950813 
153 1 3.87053 1.5033 0.950249 
223 1 4.41923 0.344831 0.44336 
11 1 5.91442 0.289407 0.813165 
46 1 5.94895 1.26104 1.0554 
108 1 0.0566231 1.3308 0.381182 
4 1 0.43632 1.98699 1.15854 
32 1 1.24364 2.11612 0.709727 
33 1 6.7105 2.88202 1.17028 
126 1 6.66531 3.0708 0.178364 
94 1 1.01313 3.00402 0.611931 
229 1 0.455755 2.27223 6.71411 
66 1 3.30576 2.60363 1.78508 
85 1 2.49387 2.39252 0.675591 
20 1 1.88261 3.19632 0.0360314 
134 1 1.97856 3.01988 1.2081 
12 1 4.32827 1.80667 0.0790613 
45 1 3.53523 2.76032 0.415323 
104 1 4.51138 2.68419 1.16632 
240 1 4.78226 2.77821 0.103398 
89 1 5.20184 1.8945 1.56527 
48 1 5.20303 3.36779 1.29852 
145 1 5.63508 3.21198 0.382699 
29 1 6.13162 2.27281 0.448395 
18 1 0.48083 4.19665 0.315367 
40 1 1.43647 3.97284 0.782811 
52 1 0.925528 5.06497 0.72498 
225 1 0.684601 3.60407 1.23165 
37 1 1.60684 4.84361 1.51945 
231 1 1.55172 4.61156 0.0826251 
105 1 2.4076 4.6992 1.15269 
230 1 2.73705 3.44036 0.675325 
233 1 2.46679 4.20859 6.60381 
39 1 4.44379 3.86724 0.674305 
44 1 3.74751 4.95246 1.03672 
121 1 3.50969 4.20841 0.402162 
123 1 3.61146 3.58713 1.23513 
61 1 5.53616 4.25526 0.787291 
114 1 6.65489 4.77035 1.08364 
228 1 6.15884 4.0859 0.0163369 
53 1 1.75257 5.47192 0.238374 
133 1 0.655368 6.07423 0.76881 
16 1 2.14942 5.92031 1.11023 
55 1 3.18165 5.87361 1.31336 
58 1 2.6951 5.2557 0.196488 
135 1 2.68098 6.35621 0.17295 
204 1 4.95005 6.54736 1.2229 
122 1 4.77619 5.0466 0.618513 
59 1 4.53121 5.58736 1.49262 
57 1 3.70705 5.52487 6.49342 
13 1 4.48921 6.01948 0.471461 
74 1 6.2059 6.00105 0.90956 
42 1 5.64476 5.54331 0.223519 
177 1 5.68151 5.25625 1.28742 
244 1 0.75479 1.1241 1.73564 
118 1 1.07875 0.239441 2.53243 
124 1 1.59542 1.16715 2.93434 
146 1 0.546027 1.19645 2.8489 
3 1 1.9666 1.12537 1.77767 
76 1 2.66541 0.975299 2.51151 
86 1 2.49131 1.74259 3.37227 
232 1 2.04194 6.71224 1.93657 
182 1 3.2655 6.68616 3.02653 
187 1 4.27106 0.549502 3.17051 
138 1 3.69169 1.27086 2.71646 
139 1 4.84867 1.27149 2.66706 
77 1 6.54163 0.459686 2.85024 
64 1 6.56489 1.30818 1.84612 
144 1 5.35656 0.461222 3.11737 
47 1 5.21565 0.533698 2.04769 
149 1 6.02287 1.67575 2.81579 
71 1 1.32681 2.17213 1.73252 
127 1 1.32016 2.06549 2.85253 
80 1 0.881546 3.15315 2.07869 
142 1 0.318262 2.09991 2.38331 
157 1 1.06852 3.09394 3.18321 
38 1 2.39847 1.97212 2.33314 
88 1 1.91785 2.98749 2.57572 
159 1 3.05548 2.67026 2.95965 
90 1 4.01122 1.89544 1.84917 
169 1 4.03608 3.26032 2.15866 
173 1 4.96021 2.67686 2.25263 
217 1 4.17822 2.26744 2.81346 
158 1 5.16115 2.20125 3.18266 
154 1 6.07551 2.32254 1.93273 
111 1 0.0622407 3.0292 2.65777 
79 1 5.76137 3.38328 2.24025 
75 1 1.62486 4.87084 2.46567 
162 1 0.69019 4.64862 1.87333 
181 1 1.61402 3.96347 2.07123 
164 1 0.756852 4.46272 3.09033 
35 1 3.26375 4.42835 1.83159 
106 1 2.90357 4.84415 2.90535 
165 1 2.64591 3.61663 2.74069 
234 1 1.72788 4.05783 3.14524 
43 1 2.49695 3.68127 1.64879 
166 1 4.86183 3.97424 2.71193 
101 1 3.90508 4.29002 2.76026 
107 1 4.39351 4.13601 1.72661 
92 1 3.85555 3.39333 3.07739 
99 1 6.54767 4.06285 2.81404 
113 1 6.21321 4.10148 1.66655 
96 1 5.39285 4.80283 2.19468 
70 1 0.301651 6.40465 1.81004 
51 1 1.1573 5.59154 1.82118 
191 1 6.62507 5.37055 2.18066 
174 1 0.643557 6.00295 2.92987 
97 1 2.41046 5.22496 1.97349 
116 1 2.73542 5.77492 2.85833 
120 1 2.15964 6.69207 3.0939 
248 1 3.05385 6.62156 1.99221 
27 1 3.4898 5.30704 2.14719 
141 1 4.11317 6.71585 2.35423 
60 1 4.4909 5.12207 2.51938 
83 1 4.78982 5.84629 3.47277 
93 1 6.45063 6.22848 2.70407 
65 1 5.7501 6.263 1.76945 
100 1 5.37728 5.35816 2.95207 
128 1 5.0093 6.21513 2.36729 
152 1 6.47592 5.21295 3.14985 
19 1 0.237128 1.56758 4.38056 
132 1 1.04957 1.12255 3.73859 
147 1 0.599095 0.702514 4.71977 
202 1 1.64896 0.857347 4.92345 
188 1 3.32271 1.07901 4.04842 
87 1 2.01983 1.33521 4.14279 
252 1 2.73358 0.123725 3.9999 
227 1 2.82506 0.760726 4.8249 
197 1 1.76801 0.0123365 4.27024 
28 1 3.59249 1.3385 5.03374 
190 1 4.05285 0.572155 4.46166 
207 1 4.97702 1.66338 4.71153 
192 1 4.5426 1.54372 3.91869 
95 1 6.62368 1.02205 3.62976 
208 1 5.58611 1.08102 4.15417 
129 1 5.02968 0.126565 4.0197 
193 1 5.96484 0.0413077 3.67959 
255 1 6.35902 0.064722 4.64098 
82 1 1.55373 2.09803 3.79319 
209 1 0.394878 2.08918 3.38258 
213 1 1.6004 2.21478 4.92875 
49 1 0.899309 2.68485 4.28139 
168 1 2.08676 2.94296 3.65774 
25 1 2.62845 2.11808 4.30161 
36 1 2.48216 2.98631 5.04788 
155 1 3.47225 2.98058 4.22806 
205 1 3.62968 2.08797 3.79414 
224 1 4.2935 2.33994 5.09313 
56 1 5.92667 3.02177 3.35375 
84 1 5.18913 2.54397 4.15301 
176 1 5.98188 2.0528 3.68629 
2 1 6.45787 2.61739 4.31244 
245 1 1.07903 4.60872 4.24506 
216 1 0.606072 3.72651 3.81541 
186 1 1.90295 4.91425 3.73884 
150 1 2.68069 3.80921 3.88957 
151 1 1.727 3.52591 4.8316 
171 1 2.3538 5.00881 4.86075 
237 1 3.12409 4.11411 4.70604 
117 1 4.80668 3.32147 3.51809 
160 1 3.4846 4.35362 3.60565 
161 1 4.03042 4.63791 4.95422 
189 1 4.56535 4.40679 3.60859 
156 1 4.15076 3.80922 4.40978 
15 1 5.78843 4.47942 5.08597 
163 1 5.54329 4.25563 3.44617 
222 1 6.48984 3.60624 4.18041 
243 1 5.35779 3.47736 4.41794 
183 1 5.36148 5.16773 4.29468 
30 1 6.68485 4.53819 3.88218 
180 1 6.63799 3.72181 5.14876 
67 1 1.52475 5.93378 3.48538 
34 1 0.688798 5.38915 3.69233 
178 1 0.313289 0.090211 3.76754 
184 1 1.67571 5.6604 4.68212 
242 1 0.241733 5.12356 4.69976 
143 1 0.601424 6.16292 4.53539 
137 1 2.55787 6.25752 5.03733 
249 1 2.52302 5.86785 3.84042 
54 1 3.27661 5.63968 4.62774 
119 1 3.73956 5.34305 3.50169 
170 1 4.00598 6.45372 3.81926 
241 1 4.4114 5.26412 4.21912 
115 1 6.40082 5.78481 4.0591 
253 1 5.48212 5.99552 4.72384 
14 1 1.04548 1.34488 6.70865 
72 1 1.70366 1.0846 5.9683 
167 1 0.66855 1.44401 5.30451 
200 1 0.779972 0.36693 5.95442 
5 1 2.6712 0.816799 6.48752 
17 1 2.44034 1.64633 5.29597 
136 1 2.09691 0.109393 6.09965 
198 1 3.08034 0.242886 5.80024 
8 1 3.69289 0.882446 6.48282 
98 1 3.70818 6.64345 5.05621 
218 1 4.70884 0.229006 6.26405 
201 1 4.36082 1.12593 5.58968 
185 1 5.5693 1.09981 5.56465 
206 1 6.61045 0.624766 6.26969 
212 1 6.46883 0.880745 5.27736 
199 1 5.71889 0.884128 0.0611822 
31 1 1.15176 2.10213 6.01081 
63 1 0.0420998 2.40362 5.394 
125 1 0.854477 3.2285 6.44205 
226 1 0.854948 3.45867 5.3543 
24 1 1.67329 2.96726 5.74305 
21 1 2.14704 2.10679 6.37899 
148 1 3.19213 2.32635 5.31817 
215 1 3.00581 2.79793 6.20834 
140 1 3.16774 1.77365 6.17613 
41 1 3.68795 3.34871 5.45499 
22 1 4.04879 2.42648 6.07066 
110 1 4.86967 1.99858 5.70608 
109 1 5.90598 2.07092 5.19658 
220 1 5.40469 1.77591 0.0841137 
196 1 6.36415 1.82753 6.25227 
239 1 5.88429 2.8386 6.1394 
235 1 5.23679 2.98775 5.23958 
62 1 0.0540568 4.59212 5.61772 
210 1 1.38946 4.04324 5.97501 
214 1 1.3054 4.66153 5.26056 
236 1 2.54602 4.10981 5.57171 
78 1 4.51926 4.80636 6.29577 
175 1 4.82819 4.22786 5.37353 
251 1 3.47997 4.49418 5.94047 
247 1 3.91997 3.58885 6.41544 
254 1 5.12054 3.66006 6.42187 
238 1 6.62738 3.57132 6.07802 
50 1 5.39614 4.86017 6.21624 
194 1 1.40289 6.59422 5.2514 
130 1 1.464 6.19424 6.21692 
195 1 0.210908 6.44153 5.5082 
203 1 0.665355 5.43599 6.47252 
6 1 0.781314 5.69977 5.43844 
131 1 1.98554 5.20947 5.97332 
102 1 2.88417 5.57065 5.99051 
112 1 4.91431 5.23478 5.43719 
256 1 3.80541 6.61582 6.49022 
179 1 4.65549 6.48344 4.95173 
219 1 4.62904 5.94625 6.20014 
250 1 3.90555 5.78684 5.42049 
68 1 6.4385 5.11012 6.34683 
221 1 6.50003 6.3179 6.42214 
211 1 5.68599 6.4354 5.52578 
1 1 5.39723 6.45397 0.173231 
246 1 6.36549 5.67784 5.28879 
ITEM: TIMESTEP
2030
ITEM: NUMBER OF ATOMS
256
ITEM: BOX BOUNDS
0 6.71838
0 6.71838
0 6.71838
ITEM: ATOMS id type x y z 
69 1 0.135171 0.616638 1.20341 
81 1 1.61257 0.232792 0.171555 
7 1 1.49278 0.442003 1.12724 
26 1 0.230135 0.131601 0.384293 
73 1 3.08036 1.33319 1.55139 
172 1 1.99736 1.23755 0.461366 
103 1 2.55308 0.403337 0.927084 
10 1 3.07171 1.55666 0.396892 
23 1 4.83279 1.13685 1.20101 
91 1 3.91316 0.738473 1.78617 
9 1 3.65324 0.000116366 0.988464 
153 1 3.91203 1.47739 0.949858 
223 1 4.46299 0.343958 0.580456 
11 1 5.90183 0.25794 0.846826 
46 1 5.97716 1.36257 0.986342 
108 1 0.173916 1.19327 0.477235 
4 1 0.449429 1.98422 1.19839 
32 1 1.39278 1.91835 0.58324 
33 1 6.63281 2.9081 1.28812 
126 1 6.57942 3.13995 0.204963 
94 1 1.03965 2.86784 0.671338 
229 1 0.391728 2.23298 6.64657 
66 1 3.2235 2.565 1.85293 
85 1 2.43271 2.40887 0.625676 
20 1 2.04037 3.18513 6.68589 
134 1 1.9601 3.1176 1.14028 
12 1 4.35936 1.78531 0.00331116 
45 1 3.52782 2.7444 0.284941 
104 1 4.50248 2.70921 1.15088 
240 1 4.70066 2.83208 0.0725492 
89 1 5.13842 1.99398 1.56599 
48 1 5.24125 3.45676 1.29152 
145 1 5.68714 3.3125 0.413339 
29 1 6.17948 2.35347 0.506513 
18 1 0.38692 4.04258 0.339839 
40 1 1.46841 4.01807 0.851318 
52 1 0.944938 5.14564 0.655305 
225 1 0.565205 3.75011 1.2549 
37 1 1.503 4.80192 1.47975 
231 1 1.50606 4.50403 6.70106 
105 1 2.52183 4.74678 1.10995 
230 1 2.71387 3.48941 0.587489 
233 1 2.45155 4.23094 6.55599 
39 1 4.48117 3.885 0.642261 
44 1 3.82531 4.99786 1.04012 
121 1 3.50583 4.21042 0.446205 
123 1 3.68984 3.51013 1.22375 
61 1 5.6148 4.32105 0.928068 
114 1 6.69455 4.75067 1.00418 
228 1 6.12916 4.17705 0.00214232 
53 1 1.81195 5.50594 0.356891 
133 1 0.826628 6.1095 0.882153 
16 1 2.09812 5.94905 1.19189 
55 1 3.2305 5.93171 1.3127 
58 1 2.87721 5.13845 0.411612 
135 1 2.78875 6.26095 0.211855 
204 1 4.91174 6.58509 1.21772 
122 1 4.83096 4.9322 0.693806 
59 1 4.64722 5.65892 1.48785 
57 1 3.73087 5.59666 6.43138 
13 1 4.49884 5.98586 0.506566 
74 1 6.35887 5.91188 0.903973 
42 1 5.69716 5.44672 0.197436 
177 1 5.64981 5.16018 1.31147 
244 1 0.829267 1.14164 1.73958 
118 1 1.09353 0.348417 2.41156 
124 1 1.75534 1.20325 2.88975 
146 1 0.568163 1.20923 2.73653 
3 1 1.96503 1.0756 1.77771 
76 1 2.67714 1.09088 2.52054 
86 1 2.4521 1.85183 3.46737 
232 1 1.933 6.67684 1.98381 
182 1 3.22716 6.65369 3.1209 
187 1 4.30442 0.48614 3.21462 
138 1 3.61849 1.31173 2.67897 
139 1 4.85777 1.27999 2.55843 
77 1 6.54006 0.457247 2.81067 
64 1 6.48031 1.31913 1.9031 
144 1 5.30296 0.468965 3.08604 
47 1 5.1608 0.515287 2.0006 
149 1 6.08173 1.66367 2.77414 
71 1 1.23576 2.25726 1.7625 
127 1 1.37962 2.16781 2.7816 
80 1 0.88556 3.23941 2.12241 
142 1 0.303887 2.14255 2.38891 
157 1 1.00018 3.0247 3.069 
38 1 2.3526 2.05961 2.35297 
88 1 1.81279 2.91386 2.47883 
159 1 3.01039 2.66847 2.8618 
90 1 4.09113 1.813 1.89548 
169 1 3.98392 3.31881 2.20841 
173 1 4.91885 2.78062 2.26578 
217 1 4.16105 2.29473 2.8105 
158 1 5.12176 2.08139 3.06737 
154 1 6.12164 2.28022 2.01509 
111 1 0.0712119 3.01301 2.70266 
79 1 5.74567 3.47091 2.34314 
75 1 1.60389 4.98778 2.62594 
162 1 0.651098 4.50931 1.93424 
181 1 1.57193 3.95105 2.0992 
164 1 0.799482 4.41259 3.08732 
35 1 3.31478 4.49424 1.84565 
106 1 3.01852 4.82745 2.89257 
165 1 2.62799 3.69133 2.62769 
234 1 1.70267 3.91006 3.26155 
43 1 2.62223 3.68822 1.6434 
166 1 4.91387 3.96129 2.65634 
101 1 3.85266 4.31976 2.66319 
107 1 4.4962 4.23984 1.73667 
92 1 3.95441 3.35585 3.22306 
99 1 6.49761 3.95519 2.77198 
113 1 6.16094 4.07367 1.59987 
96 1 5.44694 4.82239 2.16329 
70 1 0.346836 6.55533 1.80509 
51 1 1.17436 5.72237 1.89409 
191 1 6.55423 5.39766 2.04587 
174 1 0.72507 5.99726 2.9638 
97 1 2.39108 5.34732 2.02439 
116 1 2.75708 5.85868 2.80116 
120 1 2.05974 0.016731 3.02289 
248 1 3.01657 6.63119 1.98805 
27 1 3.42946 5.44339 2.17929 
141 1 4.06533 6.64918 2.34167 
60 1 4.4706 5.10115 2.42537 
83 1 4.77162 5.89181 3.60773 
93 1 6.47978 6.14995 2.72487 
65 1 5.72888 6.14233 1.73084 
100 1 5.49432 5.32005 3.09813 
128 1 4.96928 6.14023 2.42046 
152 1 6.45853 5.25508 3.2133 
19 1 0.294774 1.58888 4.35667 
132 1 0.932114 1.08891 3.77813 
147 1 0.558205 0.518068 4.66818 
202 1 1.68752 0.833215 4.9497 
188 1 3.33009 1.12212 3.95927 
87 1 2.10631 1.27513 4.21621 
252 1 2.66315 0.170277 4.00798 
227 1 2.75486 0.721422 4.83674 
197 1 1.71383 0.000857595 4.12852 
28 1 3.52532 1.47573 5.14609 
190 1 4.06505 0.649754 4.48693 
207 1 5.03939 1.72217 4.76397 
192 1 4.49468 1.58816 3.87463 
95 1 6.52982 1.08861 3.63057 
208 1 5.52397 1.05971 4.15369 
129 1 4.96753 0.0160694 4.03666 
193 1 5.99058 6.62076 3.65062 
255 1 6.24171 0.00919413 4.72749 
82 1 1.48806 2.06696 3.79834 
209 1 0.418739 2.14365 3.40778 
213 1 1.56308 2.19506 4.95051 
49 1 0.869823 2.66976 4.35088 
168 1 2.0867 2.90744 3.59826 
25 1 2.66627 2.17472 4.38003 
36 1 2.42756 2.98842 5.06029 
155 1 3.44318 2.90344 4.13413 
205 1 3.5741 2.00612 3.69209 
224 1 4.2836 2.49662 4.98755 
56 1 5.84542 3.04595 3.2599 
84 1 5.13223 2.57109 4.15892 
176 1 5.9621 2.0483 3.68425 
2 1 6.42345 2.5793 4.35574 
245 1 1.07792 4.51204 4.17903 
216 1 0.608077 3.70761 3.70878 
186 1 1.89547 4.97065 3.70308 
150 1 2.65019 3.68218 3.91946 
151 1 1.74638 3.60521 4.71404 
171 1 2.39925 4.97653 4.83646 
237 1 3.20826 4.1844 4.6756 
117 1 4.85833 3.22698 3.56552 
160 1 3.38848 4.3663 3.73413 
161 1 4.02896 4.69942 5.02846 
189 1 4.57912 4.45077 3.62534 
156 1 4.16258 3.69637 4.35421 
15 1 5.8794 4.46334 5.15807 
163 1 5.56812 4.23021 3.35789 
222 1 6.35385 3.65705 4.12385 
243 1 5.51644 3.53712 4.4303 
183 1 5.3503 5.06487 4.27212 
30 1 6.67412 4.52885 3.89873 
180 1 6.56901 3.64711 5.09413 
67 1 1.63633 5.87881 3.42495 
34 1 0.742527 5.36524 3.87005 
178 1 0.264288 0.177055 3.70811 
184 1 1.70269 5.78651 4.69698 
242 1 0.311477 5.07471 4.68089 
143 1 0.623987 6.19536 4.56953 
137 1 2.52706 6.17882 5.04934 
249 1 2.5232 5.87345 3.91327 
54 1 3.30442 5.65198 4.64145 