ITEM: TIMESTEP
2000
ITEM: NUMBER OF ATOMS
256
ITEM: BOX BOUNDS
0 9.06031
0 9.06031
0 9.06031
ITEM: ATOMS id type x y z 
90 1 0.879262 0.496002 0.746178 
71 1 2.36636 0.102421 1.30379 
124 1 2.74309 0.883436 0.410698 
142 1 3.33086 1.15592 1.11687 
120 1 5.73684 0.27396 0.387183 
236 1 6.02136 1.0413 1.16275 
162 1 0.667728 1.80052 0.158268 
30 1 1.4185 1.76629 0.998022 
20 1 1.84364 2.77315 1.2329 
163 1 3.73712 1.53401 0.0496152 
108 1 3.85007 2.36519 0.624643 
107 1 5.71799 2.30858 1.36016 
21 1 7.78547 2.70358 0.83563 
33 1 1.33512 3.55602 1.0523 
168 1 0.11972 4.287 1.00985 
155 1 0.395416 3.33841 0.255737 
208 1 2.25774 4.05473 1.47938 
165 1 2.9449 3.99204 0.270784 
253 1 4.47265 4.18695 0.887592 
60 1 4.31428 3.89885 0.0224025 
193 1 4.95884 3.23261 0.921144 
64 1 7.3969 4.10153 0.837426 
244 1 6.91091 3.35688 1.24494 
223 1 8.78334 3.07324 0.903763 
228 1 1.47586 4.75974 1.17568 
106 1 2.04401 4.54019 0.116699 
136 1 4.39003 5.96323 0.00185284 
224 1 3.20986 5.9285 1.26538 
26 1 5.99171 5.48527 1.0812 
126 1 7.46606 5.41715 0.190281 
92 1 8.92859 5.99734 0.675499 
116 1 8.70678 5.03192 0.364427 
65 1 0.80818 7.40373 0.383834 
35 1 2.34227 6.31797 0.416787 
53 1 1.54938 6.52277 1.43774 
176 1 5.90216 6.33266 0.341988 
146 1 7.39414 7.54412 1.00747 
213 1 7.36218 7.46579 0.0840615 
201 1 0.234995 8.55347 1.48221 
227 1 1.51195 8.26889 0.759695 
206 1 2.46149 9.02176 0.162837 
24 1 3.06132 7.6748 0.134704 
125 1 4.1753 8.35077 0.88439 
32 1 5.11765 7.59981 0.886056 
96 1 6.12359 8.56879 0.870157 
153 1 7.32559 8.8121 0.324977 
114 1 8.31008 8.95925 0.460427 
118 1 1.15323 1.02167 1.7087 
164 1 2.88181 1.06205 2.1629 
175 1 1.79491 0.772189 2.53497 
1 1 4.20945 1.24908 2.65087 
36 1 3.91551 0.122183 2.40629 
6 1 4.65453 0.600163 1.90126 
10 1 7.53905 0.81316 2.72187 
99 1 2.45244 1.81967 2.66391 
100 1 3.99525 1.98657 1.72829 
127 1 5.35817 3.01195 2.22259 
95 1 4.94844 1.6569 1.71131 
234 1 8.15046 2.39624 2.54253 
39 1 8.88929 1.8626 1.93323 
128 1 8.87355 2.74835 1.80166 
187 1 2.75249 3.65935 2.79869 
192 1 3.31716 4.37428 2.3399 
235 1 4.465 4.44244 2.21301 
199 1 4.4679 3.04524 2.72139 
140 1 5.55516 4.19218 1.73917 
147 1 7.04691 4.23419 2.24752 
16 1 8.22841 4.16513 1.89776 
237 1 0.260238 5.20218 1.53052 
66 1 1.11288 4.85088 2.7875 
180 1 2.19468 4.99598 1.94242 
167 1 1.81484 5.90846 2.24471 
11 1 5.53546 5.35251 2.24377 
67 1 7.13352 5.53112 1.54923 
50 1 0.37206 7.12271 2.89015 
156 1 1.31686 7.36668 2.53179 
73 1 4.09288 7.31618 1.66062 
222 1 3.24836 6.91793 2.04212 
62 1 4.62041 6.18176 1.9035 
203 1 5.1698 6.91611 3.01537 
220 1 5.89662 6.2031 2.87793 
197 1 7.17852 6.93108 1.98031 
74 1 8.70437 6.48006 1.83366 
160 1 3.69599 8.6569 1.69106 
117 1 3.46195 8.06575 2.37517 
76 1 7.46537 8.03477 2.07938 
135 1 8.37501 9.03459 1.7546 
70 1 8.62214 8.5711 2.48143 
97 1 2.11449 1.47157 4.26285 
151 1 3.85129 0.874032 4.33519 
83 1 4.70851 0.772121 3.28689 
255 1 6.4528 0.207456 3.50821 
81 1 8.33544 0.216163 3.73997 
204 1 7.93864 1.25219 3.68273 
89 1 1.50664 2.48883 4.41648 
80 1 0.676565 2.92731 3.12379 
132 1 3.65302 1.76209 3.96634 
40 1 4.4958 2.97024 4.51628 
190 1 5.07311 2.473 3.89041 
239 1 8.98913 2.29631 3.7971 
4 1 8.85993 1.53026 3.09487 
231 1 0.394102 4.21515 3.94315 
78 1 1.5838 3.61955 4.07945 
161 1 5.32463 4.26125 3.69755 
154 1 6.16043 3.87783 4.44583 
152 1 6.96609 4.35738 4.09763 
214 1 8.55698 3.85153 4.22301 
179 1 7.99814 3.65979 3.09701 
25 1 0.532871 5.41308 4.11891 
170 1 1.8736 5.47972 3.42076 
250 1 2.46575 4.81408 4.3924 
58 1 3.77524 5.43458 3.60692 
184 1 3.89288 4.67585 4.36611 
46 1 5.80169 5.12827 3.54372 
217 1 7.57613 5.00086 3.23116 
148 1 8.70558 5.73222 3.13117 
13 1 0.340777 6.77647 3.95808 
149 1 1.22166 6.83336 4.27765 
138 1 2.89389 6.13974 4.06343 
112 1 3.56392 6.86434 4.12569 
207 1 4.87189 6.91173 4.02113 
209 1 5.9505 7.13195 4.13304 
61 1 0.308067 8.88942 4.03291 
29 1 2.53151 7.97819 4.16686 
181 1 1.87134 8.6847 3.38347 
123 1 4.92464 8.68827 3.09549 
27 1 4.90406 8.21536 4.35279 
173 1 7.0932 8.77422 3.95629 
221 1 6.7849 8.18002 3.20621 
251 1 0.30335 0.762024 5.40851 
42 1 2.42857 0.551786 4.55565 
38 1 2.50633 1.20934 5.89571 
230 1 5.19147 1.35484 4.73125 
22 1 8.34779 0.954051 4.654 
59 1 1.01145 2.75651 5.15167 
94 1 2.48922 2.74794 5.23252 
254 1 3.10326 1.67347 4.70949 
143 1 4.44828 2.21535 5.17905 
194 1 5.46088 2.12992 5.34506 
186 1 5.8946 2.5202 4.66849 
43 1 6.11137 1.58026 6.03077 
110 1 7.34284 2.06649 4.94394 
105 1 7.75976 2.33221 5.8357 
63 1 8.20692 2.96154 4.85039 
48 1 8.94286 1.85713 4.84835 
210 1 0.955642 3.9399 4.89761 
91 1 0.22293 3.14614 4.73949 
56 1 1.51608 3.4667 5.68616 
157 1 2.07897 4.19578 5.01085 
200 1 3.86612 4.51881 5.818 
113 1 3.94172 3.48448 5.35856 
145 1 5.75293 3.94219 5.38999 
19 1 4.94037 3.07239 5.62913 
150 1 4.99714 3.69634 4.88535 
88 1 5.01118 4.21765 6.03585 
85 1 6.93697 3.65789 5.33304 
219 1 7.94725 4.32038 5.46039 
189 1 2.70843 5.53171 5.22674 
174 1 1.51208 5.06219 4.60996 
122 1 4.0267 5.92059 5.05701 
18 1 3.31526 5.28671 6.03637 
216 1 4.55611 5.11463 4.85494 
183 1 6.27477 5.9152 5.63101 
158 1 7.1639 5.13049 5.41262 
178 1 8.83908 5.84004 5.01226 
196 1 1.2661 6.46817 5.28756 
133 1 3.34962 7.11206 5.54721 
166 1 5.14793 6.24491 4.87749 
243 1 7.83555 7.06405 5.02343 
256 1 9.05157 6.94132 5.88748 
131 1 1.36916 8.48255 5.02888 
101 1 1.16909 8.97213 5.88598 
55 1 0.536742 7.71317 5.1353 
245 1 2.2632 7.5975 5.16943 
225 1 3.01592 8.23677 5.06033 
191 1 4.50829 8.04611 5.40213 
3 1 5.23341 8.627 5.22413 
75 1 7.17728 8.81426 5.88972 
252 1 6.52936 7.69276 4.7622 
68 1 7.01597 7.68126 5.72145 
212 1 7.66426 8.17263 5.06066 
93 1 2.24081 0.369408 7.42994 
195 1 2.46845 1.14739 6.87662 
233 1 3.83983 1.0303 6.47152 
28 1 5.46486 0.612699 6.71762 
159 1 6.73976 0.120996 7.1686 
242 1 6.64235 1.29557 6.74608 
103 1 7.47499 0.991701 6.04111 
54 1 8.56806 1.32617 7.14773 
31 1 8.16784 0.0288755 6.90504 
211 1 0.561253 2.56502 6.48296 
109 1 1.6656 2.95821 6.66823 
102 1 3.36349 1.8806 6.11422 
2 1 9.00946 2.67595 7.42094 
79 1 8.85202 2.06024 6.0639 
41 1 7.65694 2.24036 7.45122 
14 1 0.200584 3.53904 6.61699 
172 1 0.925274 4.52537 6.08036 
247 1 1.03406 3.31614 7.45501 
84 1 4.17944 3.55214 6.4508 
205 1 3.06294 4.07433 7.21811 
182 1 5.1467 4.23187 7.39914 
185 1 7.42474 3.95176 6.25583 
45 1 8.63673 4.29865 6.47697 
119 1 0.907385 5.02667 7.02298 
232 1 1.89739 5.06437 7.19016 
171 1 1.97222 4.76858 6.14413 
72 1 4.20264 4.91029 6.85363 
130 1 5.84702 5.07224 6.0699 
52 1 7.38293 5.62829 7.33545 
44 1 8.4309 5.17553 6.98103 
238 1 0.684716 6.97589 6.80898 
12 1 2.13115 7.25383 6.1559 
169 1 4.25491 6.82827 6.84533 
141 1 3.04689 7.33789 7.22889 
8 1 4.69565 6.29463 6.38235 
77 1 7.52296 6.13889 6.19029 
115 1 8.40295 6.20066 6.87692 
87 1 1.05756 7.98795 6.84573 
229 1 5.82815 7.73325 6.98449 
51 1 8.48091 7.67078 6.66844 
134 1 1.53932 1.05313 7.55077 
49 1 3.89718 0.51013 8.8886 
5 1 4.28631 1.18395 7.93825 
9 1 5.35634 0.27738 8.57946 
121 1 8.77305 1.33122 8.99339 
215 1 3.36702 1.77963 7.56371 
86 1 5.35392 2.6248 7.61729 
37 1 4.92916 2.20837 8.4002 
144 1 0.133503 3.79485 8.00478 
7 1 2.14939 3.9695 7.85243 
198 1 1.53118 3.03546 8.83485 
17 1 3.55639 3.5593 8.63526 
34 1 1.35106 4.88023 8.47158 
15 1 0.365335 5.4115 8.51579 
23 1 3.52899 5.79398 8.90232 
82 1 3.86196 5.47453 7.63314 
188 1 4.52895 4.98483 8.21739 
69 1 5.81528 5.01587 8.65795 
249 1 8.49274 5.5772 8.62638 
98 1 8.79959 4.69865 8.10801 
139 1 1.42439 6.96226 8.46999 
240 1 1.09656 6.49802 7.62994 
177 1 2.23571 7.27926 8.06244 
129 1 3.262 6.73215 8.19496 
47 1 4.17631 7.15067 8.86618 
226 1 7.03607 6.70609 8.53154 
137 1 6.10786 7.05039 7.7839 
202 1 8.14738 6.93957 8.44653 
246 1 0.278847 7.92929 7.62258 
241 1 0.841809 8.69391 8.97636 
57 1 2.5979 8.12392 7.88431 
104 1 3.70839 7.69971 8.27184 
218 1 5.85138 8.47622 8.53732 
111 1 8.37591 8.35803 8.5634 
248 1 8.25754 7.70693 7.62003 
ITEM: TIMESTEP
2010
ITEM: NUMBER OF ATOMS
256
ITEM: BOX BOUNDS
0 9.06031
0 9.06031
0 9.06031
ITEM: ATOMS id type x y z 
90 1 0.747794 0.402969 0.718512 
71 1 2.46395 0.0488291 1.49523 
124 1 2.68714 1.00992 0.539641 
142 1 3.51273 1.14602 1.1312 
120 1 5.68868 0.320206 0.344666 
236 1 5.90829 0.996701 1.28042 
162 1 0.928897 1.63624 0.230952 
30 1 1.46457 1.67411 1.09477 
20 1 1.96447 2.53366 1.31062 
163 1 3.79887 1.41099 0.110062 
108 1 3.73419 2.41784 0.694822 
107 1 5.68203 2.3381 1.28523 
21 1 7.76599 2.88444 0.873873 
33 1 1.24208 3.48904 1.02361 
168 1 0.130355 4.26016 1.21027 
155 1 0.388337 3.17487 0.253002 
208 1 2.24997 3.91583 1.49753 
165 1 2.94988 3.85836 0.389895 
253 1 4.35014 4.24027 1.06976 
60 1 4.37553 3.81407 0.0578692 
193 1 4.78078 3.3589 0.733119 
64 1 7.44495 4.09064 0.915349 
244 1 7.02652 3.35512 1.38862 
223 1 8.84812 3.09778 1.01267 
228 1 1.38165 4.73729 1.12327 
106 1 1.97857 4.45553 0.0566715 
136 1 4.53037 5.69889 0.0278956 
224 1 3.19135 6.0984 1.27678 
26 1 5.88616 5.47561 1.0727 
126 1 7.40254 5.37515 0.0700931 
92 1 8.944 5.85896 0.910828 
116 1 8.83617 4.79642 0.366082 
65 1 1.01717 7.26751 0.397363 
35 1 2.44 6.42817 0.433919 
53 1 1.48226 6.30374 1.46926 
176 1 5.85171 6.2927 0.241391 
146 1 7.39398 7.58026 0.985445 
213 1 7.39035 7.27386 0.0382024 
201 1 0.355916 8.52578 1.47433 
227 1 1.62121 8.3748 0.616633 
206 1 2.4864 0.0772899 0.152608 
24 1 3.21565 7.65648 0.188393 
125 1 4.16944 8.34694 0.702003 
32 1 4.88257 7.68733 1.00829 
96 1 6.09415 8.57337 0.838261 
153 1 7.3922 8.98245 0.306948 
114 1 8.32855 8.89961 0.478488 
118 1 1.03949 1.03793 1.74041 
164 1 2.91887 1.10758 2.25714 
175 1 1.90078 0.9842 2.42848 
1 1 4.05623 1.25606 2.53651 
36 1 3.94815 0.270296 2.34657 
6 1 4.74588 0.521608 1.87544 
10 1 7.52031 0.826303 2.66817 
99 1 2.38496 1.75669 2.85347 
100 1 4.20456 2.02463 1.68459 
127 1 5.33788 3.08852 2.16566 
95 1 5.09583 1.74227 1.8022 
234 1 8.12608 2.63251 2.49981 
39 1 8.89252 1.73243 1.94927 
128 1 8.97299 2.89326 1.90027 
187 1 2.60497 3.6474 2.67359 
192 1 3.2826 4.30445 2.48487 
235 1 4.48276 4.48356 2.28035 
199 1 4.3907 2.99783 2.58533 
140 1 5.45934 4.04477 1.75391 
147 1 6.96684 4.20121 2.45312 
16 1 8.21641 3.98298 1.65565 
237 1 0.240604 5.39875 1.55793 
66 1 1.06361 4.75223 2.95583 
180 1 2.28569 5.06013 1.81804 
167 1 1.96101 5.91339 2.16966 
11 1 5.68027 5.66839 1.96439 
67 1 7.16419 5.49871 1.48879 
50 1 0.523725 7.28651 2.87412 
156 1 1.36269 7.49272 2.23718 
73 1 4.10546 7.53861 1.5846 
222 1 3.25486 6.93228 1.94808 
62 1 4.66599 6.07431 1.95994 
203 1 5.01494 6.8642 3.0511 
220 1 5.93986 6.13361 2.7655 
197 1 7.0891 6.80188 1.76781 
74 1 8.71353 6.58103 1.86341 
160 1 3.67108 8.6933 1.50883 
117 1 3.42641 8.05524 2.38091 
76 1 7.5417 7.84179 1.98789 
135 1 8.55887 0.0538931 1.75863 
70 1 8.59087 8.38636 2.68824 
97 1 2.20657 1.66438 4.35117 
151 1 3.94051 0.93943 4.18274 
83 1 4.77295 0.619561 3.35388 
255 1 6.45748 0.262797 3.36265 
81 1 8.4705 0.178336 3.70953 
204 1 8.01994 1.27244 3.70056 
89 1 1.72793 2.61495 4.12614 
80 1 0.701399 3.07928 3.332 
132 1 3.57148 1.94552 3.83666 
40 1 4.39011 2.91194 4.46631 
190 1 5.1477 2.45952 3.89409 
239 1 0.0300918 2.45468 3.80747 
4 1 8.82871 1.59552 3.10225 
231 1 0.382317 4.17293 3.76832 
78 1 1.73073 3.68756 4.01211 
161 1 5.23629 4.1763 3.69357 
154 1 6.27184 3.98083 4.41139 
152 1 7.0368 4.5921 3.89009 
214 1 8.42575 3.84383 4.39132 
179 1 7.96226 3.63683 3.13435 
25 1 0.686724 5.45194 4.17279 
170 1 1.7836 5.33529 3.49376 
250 1 2.50889 4.76076 4.44345 
58 1 3.62111 5.43484 3.45532 
184 1 3.89411 4.64752 4.29825 
46 1 5.72454 5.18525 3.43641 
217 1 7.69166 4.76966 3.34348 
148 1 8.6205 5.44812 2.88953 
13 1 0.342326 6.73556 3.89636 
149 1 1.47123 6.7378 4.30995 
138 1 2.91945 5.9692 4.06491 
112 1 3.6002 6.91595 4.31445 
207 1 4.88076 6.84066 4.02096 
209 1 6.01166 7.12263 4.00056 
61 1 0.0914109 8.91759 4.19329 
29 1 2.38347 7.99459 4.13065 
181 1 1.86276 8.84554 3.34406 
123 1 4.7913 8.66864 3.10159 
27 1 4.6273 8.28174 4.65542 
173 1 7.18201 8.66256 3.92785 
221 1 6.8997 8.29152 3.08016 
251 1 0.244909 0.68862 5.26384 
42 1 2.51363 0.334944 4.61675 
38 1 2.70085 1.09552 5.76276 
230 1 5.40141 1.26707 4.73216 
22 1 8.33603 1.10952 4.72781 
59 1 0.95841 2.84084 5.23012 
94 1 2.43656 2.6766 5.34586 
254 1 3.19588 1.72334 4.92584 
143 1 4.55856 2.24235 5.10223 
194 1 5.3733 2.0728 5.54315 
186 1 5.90542 2.4742 4.54703 
43 1 6.03215 1.49732 5.84918 
110 1 7.59142 2.03462 4.97723 
105 1 7.7781 2.52958 5.83103 
63 1 8.1767 3.00677 5.01443 
48 1 8.76026 1.9092 5.01288 
210 1 1.03499 3.68162 4.63735 
91 1 0.133203 3.2726 4.74184 
56 1 1.60209 3.47671 5.59195 
157 1 2.0545 3.9908 4.95989 
200 1 3.891 4.49056 5.858 
113 1 3.96551 3.55209 5.50963 
145 1 5.82964 3.78309 5.48599 
19 1 4.81456 2.98944 5.55711 
150 1 4.90119 3.65916 4.85328 
88 1 4.89713 4.29284 5.80417 
85 1 6.86177 3.69859 5.37171 
219 1 8.01871 4.42289 5.44566 
189 1 2.64086 5.44202 5.35971 
174 1 1.43942 5.07255 4.6158 
122 1 4.04348 6.08222 5.19548 
18 1 3.33555 5.35526 6.12246 
216 1 4.707 5.14223 4.84389 
183 1 6.28319 5.74564 5.64376 
158 1 7.34787 5.17298 5.51905 
178 1 8.6321 6.02444 5.07293 
196 1 1.17651 6.57895 5.3953 
133 1 3.43254 7.11828 5.77302 
166 1 5.1607 6.22056 4.87458 
243 1 7.90621 7.09988 4.99182 
256 1 8.98757 6.92557 5.91149 
131 1 1.36823 8.44208 4.99006 
101 1 1.05369 8.9473 5.83039 
55 1 0.507145 7.69569 5.18685 
245 1 2.33155 7.50735 5.27384 
225 1 3.23299 8.29882 5.20776 
191 1 4.25099 8.01685 5.51032 
3 1 5.29011 8.65447 5.28877 
75 1 7.055 8.85806 5.9981 
252 1 6.43119 7.80597 4.79583 
68 1 7.00576 7.83635 5.78102 
212 1 7.78151 8.15914 4.97855 
93 1 2.10729 0.109331 7.37448 
195 1 2.51517 1.1004 6.74319 
233 1 3.72257 0.898144 6.37618 
28 1 5.367 0.765695 6.72808 
159 1 6.58077 0.00999039 7.05387 
242 1 6.51256 1.16863 6.92841 
103 1 7.31532 0.903918 6.05314 
54 1 8.47672 0.933575 7.21577 
31 1 8.28725 0.0237731 6.84422 
211 1 0.500669 2.45257 6.64366 
109 1 1.5003 2.98825 6.57074 
102 1 3.44228 1.93619 6.20072 
2 1 0.126427 2.79987 7.49986 
79 1 8.74131 2.03168 5.94447 
41 1 7.53714 2.15271 7.70098 
14 1 0.206802 3.73046 6.51092 
172 1 0.935888 4.56047 6.26123 
247 1 0.904654 3.44987 7.55177 
84 1 4.21947 3.53692 6.51941 
205 1 2.91986 4.04974 7.29749 
182 1 5.37683 4.23829 7.18879 
185 1 7.61511 4.01994 6.23413 
45 1 8.51001 4.38187 6.38242 
119 1 0.926367 4.89487 7.15003 
232 1 1.84885 5.2226 7.07442 
171 1 2.07083 4.94264 6.17106 
72 1 4.07316 4.85756 6.73647 
130 1 5.78606 5.08095 6.24062 
52 1 7.3776 5.64394 7.23106 
44 1 8.38072 5.41972 6.89994 
238 1 0.856156 7.05531 6.77623 
12 1 2.19155 7.24484 6.18337 
169 1 4.04683 6.79746 6.83446 
141 1 3.16236 7.47153 7.11829 
8 1 4.9289 6.04587 6.29329 
77 1 7.52842 6.03069 6.27582 
115 1 8.35771 6.50157 6.75866 
87 1 1.02631 8.20603 6.81016 
229 1 5.97697 7.70635 7.26646 
51 1 8.47839 7.64115 6.5931 
134 1 1.55523 1.07044 7.57828 
49 1 3.78819 0.533533 8.89456 
5 1 4.17643 1.04733 7.95185 
9 1 5.34167 0.287071 8.44417 
121 1 8.7043 1.25472 0.0780584 
215 1 3.477 1.74328 7.48462 
86 1 5.00636 2.73755 7.65544 
37 1 4.86675 2.01849 8.35079 
144 1 0.152682 3.70489 7.95553 
7 1 1.996 3.92088 7.647 
198 1 1.52333 3.14017 8.99464 
17 1 3.50954 3.42368 8.77408 
34 1 1.43253 5.0822 8.45226 
15 1 0.338384 5.62034 8.3548 
23 1 3.40577 5.76625 8.88241 
82 1 3.96612 5.4587 7.63784 
188 1 4.45246 4.88066 8.2409 
69 1 5.81925 5.06711 8.58228 
249 1 8.2928 5.38173 8.55869 
98 1 8.71117 4.60996 8.18727 
139 1 1.38782 7.05189 8.58553 
240 1 1.40932 6.52509 7.53373 
177 1 2.21614 7.37841 8.03229 
129 1 3.16108 6.65138 8.15557 
47 1 4.22649 7.08652 8.87142 
226 1 6.94226 6.84444 8.43223 
137 1 6.26704 7.0466 7.85879 
202 1 8.05215 7.01322 8.43024 
246 1 0.296003 8.15008 7.64918 
241 1 0.895602 8.57564 8.90779 
57 1 2.66488 8.32163 7.66913 
104 1 3.66025 7.60781 8.1159 
218 1 5.92852 8.48609 8.44698 
111 1 8.32574 8.50905 8.61863 
248 1 8.06641 7.78953 7.72494 
ITEM: TIMESTEP
2020
ITEM: NUMBER OF ATOMS
256
ITEM: BOX BOUNDS
0 9.06031
0 9.06031
0 9.06031
ITEM: ATOMS id type x y z 
90 1 0.618182 0.308853 0.693358 
71 1 2.56687 0.00221153 1.68095 
124 1 2.60243 1.15471 0.64688 
142 1 3.73638 1.14602 1.19714 
120 1 5.64746 0.39345 0.338213 
236 1 5.78777 0.953019 1.39669 
162 1 1.16394 1.4678 0.269855 
30 1 1.53136 1.57496 1.18663 
20 1 2.10869 2.3351 1.39645 
163 1 3.85969 1.44601 0.208369 
108 1 3.62248 2.46973 0.765859 
107 1 5.67806 2.40922 1.17988 
21 1 7.77088 3.05624 0.896265 
33 1 1.14445 3.43177 0.994408 
168 1 0.154065 4.22207 1.41641 
155 1 0.507811 3.04633 0.107009 
208 1 2.23948 3.77945 1.51174 
165 1 2.91038 3.7585 0.561701 
253 1 4.2236 4.32052 1.28395 
60 1 4.38066 3.88295 8.95986 
193 1 4.72264 3.32777 0.745871 
64 1 7.54473 4.20412 0.903944 
244 1 7.04882 3.25577 1.62823 
223 1 8.77641 3.14093 1.0936 
228 1 1.28812 4.70817 1.07115 
106 1 1.92 4.35673 0.0136117 
136 1 4.70058 5.4393 0.0554083 
224 1 3.16701 6.24622 1.26898 
26 1 5.81334 5.41825 0.906044 
126 1 7.30803 5.33483 9.03637 
92 1 8.83319 5.87232 0.922884 
116 1 8.96028 4.56993 0.356973 
65 1 1.19114 7.15756 0.521768 
35 1 2.54044 6.53863 0.450045 
53 1 1.31552 6.19323 1.32601 
176 1 5.80192 6.24824 0.140187 
146 1 7.38715 7.63816 1.03121 
213 1 7.45938 7.18988 0.108363 
201 1 0.485416 8.49639 1.45994 
227 1 1.73632 8.48144 0.481432 
206 1 2.50426 0.158769 0.136107 
24 1 3.37573 7.63486 0.236558 
125 1 4.15749 8.34626 0.469467 
32 1 4.80088 7.76865 1.04862 
96 1 6.07962 8.55072 0.819616 
153 1 7.29814 0.0878891 0.26117 
114 1 8.51423 8.85617 0.573613 
118 1 0.898544 1.02141 1.79578 
164 1 2.99816 1.12605 2.32013 
175 1 1.96514 1.1561 2.30133 
1 1 3.91623 1.32189 2.42414 
36 1 3.89749 0.346539 2.3547 
6 1 4.91905 0.482791 1.79959 
10 1 7.50611 0.837113 2.62318 
99 1 2.32399 1.7505 3.08715 
100 1 4.27381 2.10331 1.62693 
127 1 5.3351 3.10845 2.11363 
95 1 5.33822 1.7392 1.94293 
234 1 8.0961 2.86354 2.46347 
39 1 8.89631 1.58988 1.97096 
128 1 0.0424317 3.01642 2.16274 
187 1 2.38655 3.56771 2.57143 
192 1 3.31899 4.30881 2.60035 
235 1 4.50101 4.51988 2.34282 
199 1 4.29083 2.94719 2.45765 
140 1 5.3598 3.9528 1.74329 
147 1 6.89568 4.16771 2.65863 
16 1 8.21795 3.7874 1.43705 
237 1 0.347115 5.43874 1.80588 
66 1 1.00648 4.64832 3.11721 
180 1 2.39863 5.0569 1.66491 
167 1 2.18371 5.87278 2.29641 
11 1 5.77505 5.98541 1.76472 
67 1 7.19015 5.46756 1.42565 
50 1 0.660958 7.44528 2.86604 
156 1 1.41823 7.61804 1.93462 
73 1 3.99215 7.754 1.59624 
222 1 3.25799 6.96747 1.87432 
62 1 4.70775 5.97106 2.01923 
203 1 4.8745 6.8102 3.01641 
220 1 6.00328 6.10639 2.73555 
197 1 7.00207 6.67226 1.55398 
74 1 8.72509 6.67549 1.89039 
160 1 3.61919 8.74013 1.33031 
117 1 3.39059 8.03374 2.39408 
76 1 7.62778 7.65848 1.94463 
135 1 8.729 0.147983 1.74655 
70 1 8.56182 8.19383 2.90807 
97 1 2.30678 1.85209 4.44241 
151 1 4.03192 1.00137 4.03317 
83 1 4.83275 0.49535 3.42661 
255 1 6.45393 0.325881 3.2071 
81 1 8.44247 0.217878 3.57035 
204 1 8.08603 1.28468 3.72011 
89 1 1.94192 2.73939 3.84078 
80 1 0.75494 3.25422 3.53167 
132 1 3.49608 2.13605 3.69681 
40 1 4.19969 2.91723 4.28438 
190 1 5.1872 2.43427 3.85204 
239 1 0.102833 2.59301 3.84355 
4 1 8.80791 1.66821 3.09493 
231 1 0.371892 4.12868 3.60513 
78 1 1.95866 3.76463 3.83867 
161 1 5.14724 4.0871 3.69868 
154 1 6.36898 4.07587 4.38446 
152 1 6.92155 4.77797 3.83744 
214 1 8.26168 3.87202 4.53437 
179 1 7.92652 3.61399 3.17059 
25 1 0.751254 5.54065 4.16502 
170 1 1.70491 5.19894 3.58367 
250 1 2.57638 4.74598 4.46341 
58 1 3.47694 5.42473 3.29862 
184 1 3.87837 4.61088 4.22278 
46 1 5.65033 5.24572 3.32701 
217 1 7.99996 4.58882 3.29304 
148 1 8.53742 5.16378 2.64724 
13 1 0.34241 6.69174 3.83503 
149 1 1.72344 6.6429 4.34478 
138 1 2.93119 5.79804 4.08174 
112 1 3.64261 6.96572 4.50903 
207 1 4.87513 6.77402 4.08619 
209 1 6.06335 7.1092 3.86475 
61 1 0.0320241 8.87427 4.46504 
29 1 2.23308 8.01391 4.10321 
181 1 1.85728 9.0042 3.30847 
123 1 4.653 8.62552 3.09642 
27 1 4.27658 8.2922 4.74851 
173 1 7.31805 8.58578 4.00194 
221 1 6.9851 8.35779 2.86392 
251 1 0.183096 0.616008 5.11661 
42 1 2.5993 0.119847 4.67994 
38 1 2.90521 0.98054 5.56647 
230 1 5.60664 1.18846 4.73351 
22 1 8.27934 1.1553 4.77198 
59 1 0.873139 2.84196 5.30571 
94 1 2.37946 2.60451 5.45347 
254 1 3.28626 1.77856 5.15074 
143 1 4.51849 2.01217 4.98557 
194 1 5.2955 2.078 5.76044 
186 1 5.95955 2.43501 4.46349 
43 1 6.05605 1.3183 5.71081 
110 1 7.79653 1.98248 4.96613 
105 1 7.78051 2.72457 5.91848 
63 1 8.16377 3.06277 5.13823 
48 1 8.66635 2.0539 5.01527 
210 1 1.06658 3.4693 4.43879 
91 1 0.0209943 3.36092 4.74106 
56 1 1.65709 3.45276 5.64855 
157 1 2.09703 3.8525 4.83207 
200 1 3.86781 4.47753 5.82179 
113 1 3.96538 3.5712 5.60533 
145 1 5.87827 3.62307 5.58558 
19 1 4.76701 2.9839 5.66312 
150 1 4.85614 3.76759 4.7659 
88 1 4.81306 4.36225 5.57737 
85 1 6.82977 3.74242 5.40335 
219 1 8.14451 4.51681 5.34043 
189 1 2.57709 5.36967 5.43114 
174 1 1.46052 5.02707 4.67623 
122 1 4.05788 6.24532 5.33403 
18 1 3.35098 5.4485 6.22474 
216 1 4.87289 5.17396 4.85 
183 1 6.3104 5.59802 5.63758 
158 1 7.49801 5.24452 5.63225 
178 1 8.427 6.21335 5.13726 
196 1 1.08488 6.69621 5.50525 
133 1 3.50923 7.12794 5.99317 
166 1 5.17249 6.18871 4.88181 
243 1 7.97987 7.12117 4.96744 
256 1 8.93604 6.90853 5.92049 
131 1 1.38048 8.38019 4.9219 
101 1 0.925677 8.93643 5.80279 
55 1 0.480899 7.67334 5.24167 
245 1 2.41385 7.44573 5.27972 
225 1 3.36988 8.39227 5.31801 
191 1 4.03575 7.92291 5.72035 
3 1 5.45571 8.75858 5.48856 
75 1 6.93686 8.92194 6.10942 
252 1 6.34023 7.92475 4.83138 
68 1 6.99903 7.96416 5.83174 
212 1 7.88988 8.1624 4.89562 
93 1 1.9411 8.94111 7.30414 
195 1 2.55827 1.05485 6.67796 
233 1 3.60216 0.763129 6.28693 
28 1 5.27833 0.921482 6.73666 
159 1 6.41992 8.96329 6.93918 
242 1 6.38524 1.03493 7.10654 
103 1 7.15377 0.822931 6.06927 
54 1 8.39909 0.653478 7.34185 
31 1 8.38757 8.96617 6.7219 
211 1 0.462092 2.33095 6.75695 
109 1 1.32736 3.0202 6.48199 
102 1 3.51211 1.99469 6.28128 
2 1 0.255054 2.86449 7.59129 
79 1 8.63024 2.0197 6.01801 
41 1 7.41985 2.06312 7.94665 
14 1 0.255382 3.87217 6.42182 
172 1 0.957993 4.55849 6.34096 
247 1 0.989386 3.5484 7.53838 
84 1 4.2709 3.53136 6.60243 
205 1 2.82719 4.03585 7.35682 
182 1 5.59875 4.24673 6.9743 
185 1 7.65734 4.00176 6.25361 
45 1 8.46738 4.55845 6.31564 
119 1 0.858736 4.7731 7.38233 
232 1 1.86345 5.42288 7.03836 
171 1 2.16677 5.07116 6.15328 
72 1 3.97779 4.826 6.71276 
130 1 5.70562 5.05773 6.42684 
52 1 7.35812 5.64561 7.17771 
44 1 8.34248 5.64975 6.81715 
238 1 1.01739 7.14395 6.72959 
12 1 2.23915 7.20873 6.30558 
169 1 3.81945 6.78245 6.8421 
141 1 3.26675 7.60259 7.00455 
8 1 5.17509 5.77569 6.17942 
77 1 7.53432 5.93823 6.30685 
115 1 8.30869 6.78464 6.65686 
87 1 0.998335 8.42172 6.76942 
229 1 6.07003 7.83193 7.4309 
51 1 8.48089 7.64251 6.51779 
134 1 1.57063 1.09265 7.60303 
49 1 3.67619 0.400857 8.85824 
5 1 4.07357 0.911736 7.9744 
9 1 5.28795 0.322061 8.25762 
121 1 8.64122 1.17579 0.225099 
215 1 3.58253 1.70668 7.39535 
86 1 4.67766 2.89903 7.63447 
37 1 4.77793 1.77575 8.35929 
144 1 9.05879 3.69771 8.0247 
7 1 1.79927 3.87496 7.45791 
198 1 1.51684 3.2496 0.0941311 
17 1 3.44748 3.22937 8.83835 
34 1 1.49992 5.29052 8.41562 
15 1 0.32685 5.8208 8.19361 
23 1 3.25471 5.74152 8.85507 
82 1 3.94357 5.57417 7.51967 
188 1 4.50043 4.65553 8.40056 
69 1 5.81793 5.12213 8.51034 
249 1 8.06891 5.2739 8.5098 
98 1 8.65446 4.47543 8.23613 
139 1 1.36643 7.11205 8.60777 
240 1 1.7285 6.54623 7.44713 
177 1 2.22334 7.46784 7.98749 
129 1 3.05698 6.5679 8.11861 
47 1 4.28328 7.00535 8.89992 
226 1 7.03072 6.78575 8.41124 
137 1 6.19526 6.9805 7.81616 
202 1 8.02196 7.04778 8.36044 
246 1 0.305656 8.36665 7.67748 
241 1 0.940256 8.45844 8.83588 
57 1 2.77897 8.49231 7.46684 
104 1 3.59458 7.54101 7.94816 
218 1 6.0223 8.47145 8.35915 
111 1 8.27163 8.63705 8.62778 
248 1 7.87986 7.89143 7.81697 
ITEM: TIMESTEP
2030
ITEM: NUMBER OF ATOMS
256
ITEM: BOX BOUNDS
0 9.06031
0 9.06031
0 9.06031
ITEM: ATOMS id type x y z 
90 1 0.490553 0.216106 0.671302 
71 1 2.6755 9.02239 1.86525 
124 1 2.52104 1.30368 0.760454 
142 1 3.95487 1.13938 1.29474 
120 1 5.60403 0.469756 0.331418 
236 1 5.72723 0.931031 1.47406 
162 1 1.37435 1.29047 0.258563 
30 1 1.59496 1.43493 1.29677 
20 1 2.29777 2.19818 1.49713 
163 1 3.92293 1.50559 0.288786 
108 1 3.51386 2.52008 0.833896 
107 1 5.67668 2.49752 1.06653 
21 1 7.72164 3.15434 0.844555 
33 1 1.01688 3.39233 1.02832 
168 1 0.188464 4.1828 1.61926 
155 1 0.600956 2.91825 9.02274 
208 1 2.22137 3.64958 1.50936 
165 1 2.86128 3.66615 0.741421 
253 1 4.10048 4.39367 1.4907 
60 1 4.28767 3.7717 8.87568 
193 1 4.70684 3.23705 0.85448 
64 1 7.57455 4.36047 0.834425 
244 1 7.06059 3.16911 1.8865 
223 1 8.87228 3.03879 1.08261 
228 1 1.1951 4.67249 1.02034 
106 1 1.86083 4.25881 9.03665 
136 1 4.87944 5.19302 0.0931096 
224 1 3.1398 6.29784 1.20248 
26 1 5.75114 5.32378 0.656786 
126 1 7.09104 5.3051 9.03105 
92 1 8.69645 5.91185 0.892647 
116 1 0.0200729 4.34497 0.345716 
65 1 1.34292 7.06144 0.74765 
35 1 2.63153 6.65564 0.446742 
53 1 1.14766 6.08262 1.18186 
176 1 5.75192 6.19911 0.0361697 
146 1 7.34511 7.7158 1.01048 
213 1 7.53471 7.14026 0.277204 
201 1 0.617325 8.46791 1.44092 
227 1 1.8539 8.583 0.359453 
206 1 2.52942 0.240538 0.119341 
24 1 3.52546 7.59648 0.281766 
125 1 4.14091 8.37139 0.218748 
32 1 4.86713 7.84442 1.00877 
96 1 6.06749 8.52537 0.800651 
153 1 7.20602 0.247313 0.21434 
114 1 8.70689 8.82253 0.69641 
118 1 0.740823 0.986247 1.86431 
164 1 2.97952 1.10519 2.3657 
175 1 1.98453 1.30616 2.15024 
1 1 3.91752 1.4991 2.3248 
36 1 3.83804 0.34131 2.35419 
6 1 5.03371 0.415217 1.7467 
10 1 7.49523 0.844829 2.58713 
99 1 2.28004 1.76786 3.34439 
100 1 4.33705 2.18117 1.56798 
127 1 5.32762 2.97267 2.11859 
95 1 5.56306 1.73381 2.10788 
234 1 8.06081 3.0718 2.4001 
39 1 8.90148 1.44846 1.99269 
128 1 0.184818 3.14091 2.43593 
187 1 2.16525 3.48458 2.48776 
192 1 3.36154 4.32048 2.71293 
235 1 4.52103 4.55413 2.41023 
199 1 4.18887 2.89536 2.32927 
140 1 5.25634 4.01121 1.66493 
147 1 6.83355 4.13353 2.8675 
16 1 8.1927 3.76921 1.42093 
237 1 0.479735 5.44678 2.09564 
66 1 1.01001 4.58909 3.19169 
180 1 2.51561 5.02411 1.49487 
167 1 2.3999 5.85556 2.43738 
11 1 5.85355 6.32416 1.59294 
67 1 7.21306 5.43841 1.35876 
50 1 0.794293 7.60231 2.85758 
156 1 1.4686 7.74233 1.63093 
73 1 3.78823 7.94231 1.64542 
222 1 3.26899 7.08873 1.8753 
62 1 4.74743 5.86961 2.08341 
203 1 4.74067 6.75134 2.95909 
220 1 6.07609 6.09875 2.75652 
197 1 6.91722 6.54339 1.33972 
74 1 8.73716 6.7655 1.91395 
160 1 3.55879 8.80349 1.16268 
117 1 3.3225 8.02933 2.45153 
76 1 7.74182 7.47999 2.01755 
135 1 8.89966 0.24452 1.73007 
70 1 8.53172 8.00576 3.1257 
97 1 2.41521 2.04097 4.53531 
151 1 4.12031 1.07128 3.88551 
83 1 4.89803 0.41692 3.50915 
255 1 6.45771 0.384191 3.05085 
81 1 8.39465 0.263436 3.4177 
204 1 8.12831 1.28629 3.74763 
89 1 2.14849 2.83587 3.55939 
80 1 0.842783 3.35174 3.49864 
132 1 3.41865 2.31957 3.56088 
40 1 4.01278 2.92453 4.10493 
190 1 5.1641 2.40957 3.77154 
239 1 0.123079 2.68423 3.91013 
4 1 8.80736 1.75613 3.07112 
231 1 0.206983 4.11092 3.51865 
78 1 2.18875 3.87891 3.60877 
161 1 5.06008 4.00236 3.70355 
154 1 6.4508 4.15443 4.37347 
152 1 6.79246 4.97041 3.78683 
214 1 8.04733 3.93561 4.5915 
179 1 7.87438 3.54848 3.22417 
25 1 0.768551 5.66223 4.11758 
170 1 1.66887 5.09129 3.70575 
250 1 2.64354 4.73882 4.47431 
58 1 3.34958 5.39586 3.12154 
184 1 3.86403 4.57729 4.15085 
46 1 5.57364 5.29739 3.22246 
217 1 8.32087 4.45059 3.26629 
148 1 8.47903 4.90336 2.36974 
13 1 0.348001 6.64692 3.77506 
149 1 1.97216 6.54729 4.38418 
138 1 2.92374 5.63786 4.12615 
112 1 3.68763 7.0149 4.70817 
207 1 4.85868 6.72567 4.14896 
209 1 6.10777 7.09491 3.73164 
61 1 9.03734 8.76703 4.7213 
29 1 2.08113 8.03678 4.08449 
181 1 1.85483 0.0998706 3.2755 
123 1 4.50294 8.54196 3.07125 
27 1 3.96602 8.30008 4.79682 
173 1 7.45206 8.51411 4.07183 
221 1 7.07261 8.42565 2.64669 
251 1 0.129943 0.597123 5.00208 
42 1 2.68187 8.9651 4.74314 
38 1 3.06092 0.825117 5.36148 
230 1 5.79743 1.11865 4.71518 
22 1 8.2358 1.08511 4.79485 
59 1 0.768042 2.82227 5.38376 
94 1 2.32356 2.52962 5.55434 
254 1 3.39947 1.8879 5.34665 
143 1 4.45982 1.77424 4.85161 
194 1 5.21574 2.08926 5.97981 
186 1 6.06298 2.39377 4.43272 
43 1 6.11989 1.10933 5.60693 
110 1 7.71349 1.96889 4.9553 
105 1 7.72178 2.86878 6.12561 
63 1 8.18458 3.12839 5.17839 
48 1 8.861 2.27583 4.91465 
210 1 1.17378 3.28875 4.44862 
91 1 9.03804 3.41656 4.74034 
56 1 1.70443 3.42871 5.73396 
157 1 2.1815 3.75665 4.6744 
200 1 3.75082 4.56804 5.72979 
113 1 3.92776 3.49476 5.63329 
145 1 5.84236 3.4591 5.69266 
19 1 4.76525 2.97416 5.77454 
150 1 4.81223 3.84321 4.63968 
88 1 4.79274 4.43934 5.40089 
85 1 6.87776 3.79571 5.42122 
219 1 8.29151 4.60912 5.22786 
189 1 2.6275 5.38288 5.28825 
174 1 1.54254 4.94265 4.77046 
122 1 4.07443 6.40676 5.47416 
18 1 3.3443 5.56679 6.30922 
216 1 5.03029 5.19258 4.84776 
183 1 6.34007 5.45154 5.63154 
158 1 7.61925 5.24835 5.67142 
178 1 8.24961 6.32992 5.22685 
196 1 0.992896 6.81893 5.61642 
133 1 3.47306 7.08577 6.11077 
166 1 5.19534 6.15825 4.92002 
243 1 8.03046 7.19169 4.93378 
256 1 8.93591 6.89138 5.86771 
131 1 1.39473 8.31303 4.85183 
101 1 0.791916 8.92793 5.76524 
55 1 0.45584 7.65238 5.29942 
245 1 2.50316 7.39376 5.25615 
225 1 3.28274 8.59849 5.35368 
191 1 4.07219 7.8076 6.02159 
3 1 5.62341 8.86115 5.6864 
75 1 6.84714 8.95554 6.16667 
252 1 6.25374 8.04467 4.868 
68 1 6.99903 8.03624 5.85921 
212 1 7.99657 8.18794 4.81879 
93 1 1.70459 8.77618 7.22084 
195 1 2.60402 1.01092 6.61764 
233 1 3.50543 0.627504 6.22958 
28 1 5.19729 1.07814 6.74296 
159 1 6.20793 8.8596 6.89816 
242 1 6.25699 0.897281 7.27481 
103 1 7.00569 0.829474 6.08409 
54 1 8.33198 0.495171 7.54978 
31 1 8.47579 8.72913 6.51913 
211 1 0.43296 2.19143 6.82527 
109 1 1.12257 3.03202 6.44905 
102 1 3.57838 2.04565 6.3554 
2 1 0.34287 2.8141 7.67822 
79 1 8.52125 2.01571 6.21927 
41 1 7.30379 1.9725 8.18973 