ITEM: TIMESTEP
0
ITEM: NUMBER OF ATOMS
256
ITEM: BOX BOUNDS
0 6.71838
0 6.71838
0 6.71838
ITEM: ATOMS id type x y z 
1 1 0 0 0 
2 1 0.839798 0.839798 0 
3 1 0.839798 0 0.839798 
4 1 0 0.839798 0.839798 
5 1 1.6796 0 0 
6 1 2.51939 0.839798 0 
7 1 2.51939 0 0.839798 
8 1 1.6796 0.839798 0.839798 
9 1 3.35919 0 0 
10 1 4.19899 0.839798 0 
11 1 4.19899 0 0.839798 
12 1 3.35919 0.839798 0.839798 
13 1 5.03879 0 0 
14 1 5.87859 0.839798 0 
15 1 5.87859 0 0.839798 
16 1 5.03879 0.839798 0.839798 
17 1 0 1.6796 0 
18 1 0.839798 2.51939 0 
19 1 0.839798 1.6796 0.839798 
20 1 0 2.51939 0.839798 
21 1 1.6796 1.6796 0 
22 1 2.51939 2.51939 0 
23 1 2.51939 1.6796 0.839798 
24 1 1.6796 2.51939 0.839798 
25 1 3.35919 1.6796 0 
26 1 4.19899 2.51939 0 
27 1 4.19899 1.6796 0.839798 
28 1 3.35919 2.51939 0.839798 
29 1 5.03879 1.6796 0 
30 1 5.87859 2.51939 0 
31 1 5.87859 1.6796 0.839798 
32 1 5.03879 2.51939 0.839798 
33 1 0 3.35919 0 
34 1 0.839798 4.19899 0 
35 1 0.839798 3.35919 0.839798 
36 1 0 4.19899 0.839798 
37 1 1.6796 3.35919 0 
38 1 2.51939 4.19899 0 
39 1 2.51939 3.35919 0.839798 
40 1 1.6796 4.19899 0.839798 
41 1 3.35919 3.35919 0 
42 1 4.19899 4.19899 0 
43 1 4.19899 3.35919 0.839798 
44 1 3.35919 4.19899 0.839798 
45 1 5.03879 3.35919 0 
46 1 5.87859 4.19899 0 
47 1 5.87859 3.35919 0.839798 
48 1 5.03879 4.19899 0.839798 
49 1 0 5.03879 0 
50 1 0.839798 5.87859 0 
51 1 0.839798 5.03879 0.839798 
52 1 0 5.87859 0.839798 
53 1 1.6796 5.03879 0 
54 1 2.51939 5.87859 0 
55 1 2.51939 5.03879 0.839798 
56 1 1.6796 5.87859 0.839798 
57 1 3.35919 5.03879 0 
58 1 4.19899 5.87859 0 
59 1 4.19899 5.03879 0.839798 
60 1 3.35919 5.87859 0.839798 
61 1 5.03879 5.03879 0 
62 1 5.87859 5.87859 0 
63 1 5.87859 5.03879 0.839798 
64 1 5.03879 5.87859 0.839798 
65 1 0 0 1.6796 
66 1 0.839798 0.839798 1.6796 
67 1 0.839798 0 2.51939 
68 1 0 0.839798 2.51939 
69 1 1.6796 0 1.6796 
70 1 2.51939 0.839798 1.6796 
71 1 2.51939 0 2.51939 
72 1 1.6796 0.839798 2.51939 
73 1 3.35919 0 1.6796 
74 1 4.19899 0.839798 1.6796 
75 1 4.19899 0 2.51939 
76 1 3.35919 0.839798 2.51939 
77 1 5.03879 0 1.6796 
78 1 5.87859 0.839798 1.6796 
79 1 5.87859 0 2.51939 
80 1 5.03879 0.839798 2.51939 
81 1 0 1.6796 1.6796 
82 1 0.839798 2.51939 1.6796 
83 1 0.839798 1.6796 2.51939 
84 1 0 2.51939 2.51939 
85 1 1.6796 1.6796 1.6796 
86 1 2.51939 2.51939 1.6796 
87 1 2.51939 1.6796 2.51939 
88 1 1.6796 2.51939 2.51939 
89 1 3.35919 1.6796 1.6796 
90 1 4.19899 2.51939 1.6796 
91 1 4.19899 1.6796 2.51939 
92 1 3.35919 2.51939 2.51939 
93 1 5.03879 1.6796 1.6796 
94 1 5.87859 2.51939 1.6796 
95 1 5.87859 1.6796 2.51939 
96 1 5.03879 2.51939 2.51939 
97 1 0 3.35919 1.6796 
98 1 0.839798 4.19899 1.6796 
99 1 0.839798 3.35919 2.51939 
100 1 0 4.19899 2.51939 
101 1 1.6796 3.35919 1.6796 
102 1 2.51939 4.19899 1.6796 
103 1 2.51939 3.35919 2.51939 
104 1 1.6796 4.19899 2.51939 
105 1 3.35919 3.35919 1.6796 
106 1 4.19899 4.19899 1.6796 
107 1 4.19899 3.35919 2.51939 
108 1 3.35919 4.19899 2.51939 
109 1 5.03879 3.35919 1.6796 
110 1 5.87859 4.19899 1.6796 
111 1 5.87859 3.35919 2.51939 
112 1 5.03879 4.19899 2.51939 
113 1 0 5.03879 1.6796 
114 1 0.839798 5.87859 1.6796 
115 1 0.839798 5.03879 2.51939 
116 1 0 5.87859 2.51939 
117 1 1.6796 5.03879 1.6796 
118 1 2.51939 5.87859 1.6796 
119 1 2.51939 5.03879 2.51939 
120 1 1.6796 5.87859 2.51939 
121 1 3.35919 5.03879 1.6796 
122 1 4.19899 5.87859 1.6796 
123 1 4.19899 5.03879 2.51939 
124 1 3.35919 5.87859 2.51939 
125 1 5.03879 5.03879 1.6796 
126 1 5.87859 5.87859 1.6796 
127 1 5.87859 5.03879 2.51939 
128 1 5.03879 5.87859 2.51939 
129 1 0 0 3.35919 
130 1 0.839798 0.839798 3.35919 
131 1 0.839798 0 4.19899 
132 1 0 0.839798 4.19899 
133 1 1.6796 0 3.35919 
134 1 2.51939 0.839798 3.35919 
135 1 2.51939 0 4.19899 
136 1 1.6796 0.839798 4.19899 
137 1 3.35919 0 3.35919 
138 1 4.19899 0.839798 3.35919 
139 1 4.19899 0 4.19899 
140 1 3.35919 0.839798 4.19899 
141 1 5.03879 0 3.35919 
142 1 5.87859 0.839798 3.35919 
143 1 5.87859 0 4.19899 
144 1 5.03879 0.839798 4.19899 
145 1 0 1.6796 3.35919 
146 1 0.839798 2.51939 3.35919 
147 1 0.839798 1.6796 4.19899 
148 1 0 2.51939 4.19899 
149 1 1.6796 1.6796 3.35919 
150 1 2.51939 2.51939 3.35919 
151 1 2.51939 1.6796 4.19899 
152 1 1.6796 2.51939 4.19899 
153 1 3.35919 1.6796 3.35919 
154 1 4.19899 2.51939 3.35919 
155 1 4.19899 1.6796 4.19899 
156 1 3.35919 2.51939 4.19899 
157 1 5.03879 1.6796 3.35919 
158 1 5.87859 2.51939 3.35919 
159 1 5.87859 1.6796 4.19899 
160 1 5.03879 2.51939 4.19899 
161 1 0 3.35919 3.35919 
162 1 0.839798 4.19899 3.35919 
163 1 0.839798 3.35919 4.19899 
164 1 0 4.19899 4.19899 
165 1 1.6796 3.35919 3.35919 
166 1 2.51939 4.19899 3.35919 
167 1 2.51939 3.35919 4.19899 
168 1 1.6796 4.19899 4.19899 
169 1 3.35919 3.35919 3.35919 
170 1 4.19899 4.19899 3.35919 
171 1 4.19899 3.35919 4.19899 
172 1 3.35919 4.19899 4.19899 
173 1 5.03879 3.35919 3.35919 
174 1 5.87859 4.19899 3.35919 
175 1 5.87859 3.35919 4.19899 
176 1 5.03879 4.19899 4.19899 
177 1 0 5.03879 3.35919 
178 1 0.839798 5.87859 3.35919 
179 1 0.839798 5.03879 4.19899 
180 1 0 5.87859 4.19899 
181 1 1.6796 5.03879 3.35919 
182 1 2.51939 5.87859 3.35919 
183 1 2.51939 5.03879 4.19899 
184 1 1.6796 5.87859 4.19899 
185 1 3.35919 5.03879 3.35919 
186 1 4.19899 5.87859 3.35919 
187 1 4.19899 5.03879 4.19899 
188 1 3.35919 5.87859 4.19899 
189 1 5.03879 5.03879 3.35919 
190 1 5.87859 5.87859 3.35919 
191 1 5.87859 5.03879 4.19899 
192 1 5.03879 5.87859 4.19899 
193 1 0 0 5.03879 
194 1 0.839798 0.839798 5.03879 
195 1 0.839798 0 5.87859 
196 1 0 0.839798 5.87859 
197 1 1.6796 0 5.03879 
198 1 2.51939 0.839798 5.03879 
199 1 2.51939 0 5.87859 
200 1 1.6796 0.839798 5.87859 
201 1 3.35919 0 5.03879 
202 1 4.19899 0.839798 5.03879 
203 1 4.19899 0 5.87859 
204 1 3.35919 0.839798 5.87859 
205 1 5.03879 0 5.03879 
206 1 5.87859 0.839798 5.03879 
207 1 5.87859 0 5.87859 
208 1 5.03879 0.839798 5.87859 
209 1 0 1.6796 5.03879 
210 1 0.839798 2.51939 5.03879 
211 1 0.839798 1.6796 5.87859 
212 1 0 2.51939 5.87859 
213 1 1.6796 1.6796 5.03879 
214 1 2.51939 2.51939 5.03879 
215 1 2.51939 1.6796 5.87859 
216 1 1.6796 2.51939 5.87859 
217 1 3.35919 1.6796 5.03879 
218 1 4.19899 2.51939 5.03879 
219 1 4.19899 1.6796 5.87859 
220 1 3.35919 2.51939 5.87859 
221 1 5.03879 1.6796 5.03879 
222 1 5.87859 2.51939 5.03879 
223 1 5.87859 1.6796 5.87859 
224 1 5.03879 2.51939 5.87859 
225 1 0 3.35919 5.03879 
226 1 0.839798 4.19899 5.03879 
227 1 0.839798 3.35919 5.87859 
228 1 0 4.19899 5.87859 
229 1 1.6796 3.35919 5.03879 
230 1 2.51939 4.19899 5.03879 
231 1 2.51939 3.35919 5.87859 
232 1 1.6796 4.19899 5.87859 
233 1 3.35919 3.35919 5.03879 
234 1 4.19899 4.19899 5.03879 
235 1 4.19899 3.35919 5.87859 
236 1 3.35919 4.19899 5.87859 
237 1 5.03879 3.35919 5.03879 
238 1 5.87859 4.19899 5.03879 
239 1 5.87859 3.35919 5.87859 
240 1 5.03879 4.19899 5.87859 
241 1 0 5.03879 5.03879 
242 1 0.839798 5.87859 5.03879 
243 1 0.839798 5.03879 5.87859 
244 1 0 5.87859 5.87859 
245 1 1.6796 5.03879 5.03879 
246 1 2.51939 5.87859 5.03879 
247 1 2.51939 5.03879 5.87859 
248 1 1.6796 5.87859 5.87859 
249 1 3.35919 5.03879 5.03879 
250 1 4.19899 5.87859 5.03879 
251 1 4.19899 5.03879 5.87859 
252 1 3.35919 5.87859 5.87859 
253 1 5.03879 5.03879 5.03879 
254 1 5.87859 5.87859 5.03879 
255 1 5.87859 5.03879 5.87859 
256 1 5.03879 5.87859 5.87859 
ITEM: TIMESTEP
10
ITEM: NUMBER OF ATOMS
256
ITEM: BOX BOUNDS
0 6.71838
0 6.71838
0 6.71838
ITEM: ATOMS id type x y z 
1 1 0.00691881 0.00128669 0.00102735 
2 1 0.828006 0.84552 -0.00764172 
3 1 0.835199 -0.016939 0.849504 
4 1 0.00148887 0.848904 0.832479 
5 1 1.67851 0.00702876 0.000314498 
6 1 2.53622 0.843995 0.0174227 
7 1 2.50804 -0.00202377 0.824644 
8 1 1.67292 0.820776 0.821381 
9 1 3.35423 -0.0179975 -0.00570265 
10 1 4.20351 0.833506 0.012817 
11 1 4.18643 0.0180591 0.849079 
12 1 3.34149 0.835041 0.843187 
13 1 5.02435 0.011116 0.00733573 
14 1 5.87151 0.831183 0.0141463 
15 1 5.89219 -0.0129196 0.824985 
16 1 5.04004 0.839669 0.837591 
17 1 -0.0178051 1.66206 -0.0177561 
18 1 0.850065 2.5237 0.0115283 
19 1 0.826888 1.69491 0.845479 
20 1 0.00849175 2.5021 0.839207 
21 1 1.67781 1.67126 0.00327458 
22 1 2.51666 2.50121 0.00939769 
23 1 2.53679 1.69079 0.840051 
24 1 1.67324 2.5086 0.844576 
25 1 3.36462 1.67484 -0.0163786 
26 1 4.18288 2.51229 0.00695224 
27 1 4.19106 1.69225 0.847182 
28 1 3.3693 2.50182 0.828616 
29 1 5.04573 1.69672 0.0128241 
30 1 5.86095 2.5263 0.0117449 
31 1 5.89305 1.69517 0.823819 
32 1 5.02435 2.5205 0.828476 
33 1 -0.00790486 3.37574 0.0155113 
34 1 0.841667 4.20455 -0.014698 
35 1 0.855256 3.36627 0.849886 
36 1 -0.0176019 4.20222 0.827456 
37 1 1.68057 3.37176 0.00327691 
38 1 2.50855 4.2165 0.0117287 
39 1 2.50862 3.34419 0.844852 
40 1 1.67731 4.21356 0.84397 
41 1 3.35036 3.3771 0.0127268 
42 1 4.19582 4.21599 -0.0177609 
43 1 4.18895 3.34371 0.853855 
44 1 3.34284 4.20873 0.830542 
45 1 5.03078 3.36546 0.00441633 
46 1 5.87381 4.21385 0.00819832 
47 1 5.88834 3.36892 0.852041 
48 1 5.04899 4.19217 0.847793 
49 1 0.00949126 5.02019 -0.0179258 
50 1 0.832481 5.87284 0.0182833 
51 1 0.852129 5.02363 0.853341 
52 1 -0.0113558 5.87202 0.821644 
53 1 1.67283 5.05722 0.00306052 
54 1 2.5316 5.87331 -0.00714753 
55 1 2.5027 5.02407 0.851044 
56 1 1.6748 5.88525 0.843516 
57 1 3.35077 5.05731 -0.0166644 
58 1 4.20236 5.88057 0.0128893 
59 1 4.21518 5.03277 0.844321 
60 1 3.35115 5.8626 0.836513 
61 1 5.05435 5.05456 -0.00561434 
62 1 5.86191 5.86808 -0.00408779 
63 1 5.88161 5.02205 0.848151 
64 1 5.05309 5.8622 0.835176 
65 1 0.00245476 -0.000604 1.67258 
66 1 0.85812 0.82097 1.69347 
67 1 0.852257 -0.00571538 2.50355 
68 1 0.000584835 0.857371 2.50116 
69 1 1.69023 0.00116664 1.67148 
70 1 2.51765 0.83723 1.67219 
71 1 2.53338 0.0109325 2.52575 
72 1 1.67932 0.836661 2.51102 
73 1 3.35811 -0.00547868 1.66661 
74 1 4.19949 0.858433 1.68252 
75 1 4.18165 0.00254635 2.51928 
76 1 3.35456 0.847253 2.50133 
77 1 5.04007 -0.0108699 1.67204 
78 1 5.86176 0.844052 1.69542 
79 1 5.87778 -0.000785641 2.50593 
80 1 5.02126 0.83313 2.50368 
81 1 0.0132799 1.67273 1.67795 
82 1 0.822686 2.5214 1.6936 
83 1 0.854888 1.68611 2.5169 
84 1 -0.00476648 2.53588 2.52846 
85 1 1.68261 1.69421 1.66283 
86 1 2.53289 2.53334 1.66904 
87 1 2.52666 1.6826 2.52148 
88 1 1.67691 2.53383 2.52437 
89 1 3.36639 1.67711 1.68036 
90 1 4.21264 2.52119 1.66914 
91 1 4.18609 1.67428 2.50626 
92 1 3.37621 2.51363 2.52192 
93 1 5.03074 1.6698 1.67028 
94 1 5.88007 2.53194 1.68978 
95 1 5.88715 1.68727 2.52971 
96 1 5.0361 2.52819 2.5298 
97 1 -0.00503697 3.35366 1.68348 
98 1 0.854328 4.18179 1.67923 
99 1 0.827364 3.36369 2.5272 
100 1 0.00322622 4.1945 2.50338 
101 1 1.69659 3.37446 1.6781 
102 1 2.50774 4.20035 1.68136 
103 1 2.53182 3.34631 2.51782 
104 1 1.68802 4.19912 2.52819 
105 1 3.3501 3.37005 1.68322 
106 1 4.21181 4.2175 1.66987 
107 1 4.20193 3.35985 2.5204 
108 1 3.36027 4.21011 2.51332 
109 1 5.04804 3.35496 1.67854 
110 1 5.86534 4.21648 1.6767 
111 1 5.88277 3.37599 2.5131 
112 1 5.04214 4.20096 2.52438 
113 1 0.00588752 5.03301 1.68639 
114 1 0.825008 5.86012 1.68709 
115 1 0.857454 5.02071 2.52587 
116 1 0.0053519 5.89302 2.5015 
117 1 1.66124 5.05447 1.66349 
118 1 2.52829 5.88936 1.67873 
119 1 2.53283 5.03591 2.5341 
120 1 1.69127 5.86891 2.51271 
121 1 3.3691 5.05722 1.69676 
122 1 4.20654 5.88323 1.66732 
123 1 4.21354 5.05616 2.52342 
124 1 3.34319 5.86883 2.50803 
125 1 5.03221 5.04324 1.67207 
126 1 5.88019 5.86038 1.69348 
127 1 5.88974 5.03935 2.5367 
128 1 5.04812 5.88754 2.51662 
129 1 0.00732509 -0.00722336 3.35479 
130 1 0.84765 0.852904 3.3574 
131 1 0.821599 -0.00477097 4.19131 
132 1 0.00155676 0.832635 4.19652 
133 1 1.66489 -0.015256 3.35897 
134 1 2.53058 0.845531 3.37272 
135 1 2.53036 -0.0040462 4.18515 
136 1 1.68256 0.830632 4.21375 
137 1 3.36877 0.00779292 3.37528 
138 1 4.18577 0.821964 3.3504 
139 1 4.21613 -0.0146144 4.19963 
140 1 3.37186 0.826677 4.18684 
141 1 5.05573 -0.0152171 3.3512 
142 1 5.86843 0.848542 3.34949 
143 1 5.86151 0.00415912 4.18413 
144 1 5.03234 0.850998 4.19039 
145 1 0.0130823 1.66252 3.37358 
146 1 0.846303 2.51852 3.35379 
147 1 0.830005 1.66915 4.1959 
148 1 -0.000255165 2.53323 4.18476 
149 1 1.67371 1.67018 3.35174 
150 1 2.50145 2.52125 3.34713 
151 1 2.52259 1.67169 4.20592 
152 1 1.67137 2.5348 4.19444 
153 1 3.36157 1.68206 3.3439 
154 1 4.18017 2.51981 3.34971 
155 1 4.18729 1.66038 4.21578 
156 1 3.36818 2.52344 4.21082 
157 1 5.02453 1.6629 3.35589 
158 1 5.88977 2.5249 3.35064 
159 1 5.86993 1.69764 4.20866 
160 1 5.0328 2.5262 4.21687 
161 1 0.0165817 3.35812 3.37007 
162 1 0.85031 4.18453 3.37399 
163 1 0.848008 3.35142 4.19762 
164 1 0.00615345 4.20257 4.21542 
165 1 1.67729 3.36137 3.3479 
166 1 2.51631 4.21492 3.36601 
167 1 2.53235 3.35555 4.1829 
168 1 1.6655 4.18793 4.18898 
169 1 3.35616 3.35202 3.36411 
170 1 4.20924 4.1883 3.35664 
171 1 4.18236 3.34297 4.20552 
172 1 3.3482 4.19871 4.19257 
173 1 5.05103 3.3403 3.34645 
174 1 5.89097 4.20951 3.3488 
175 1 5.88564 3.36872 4.21214 
176 1 5.02456 4.20772 4.19244 
177 1 0.0147021 5.02516 3.3643 
178 1 0.827953 5.86418 3.37117 
179 1 0.85768 5.03745 4.19375 
180 1 -0.00439576 5.87636 4.18721 
181 1 1.66475 5.0297 3.36514 
182 1 2.52648 5.86402 3.36756 
183 1 2.5132 5.02072 4.18624 
184 1 1.6987 5.8636 4.20552 
185 1 3.37462 5.03602 3.34923 
186 1 4.18717 5.88775 3.3748 
187 1 4.19901 5.03211 4.19198 
188 1 3.35294 5.88305 4.21254 
189 1 5.03647 5.04628 3.37091 
190 1 5.88164 5.87144 3.37022 
191 1 5.86833 5.03186 4.19325 
192 1 5.03269 5.88699 4.19235 
193 1 -0.00920439 0.0166751 5.05296 
194 1 0.852397 0.848742 5.04655 
195 1 0.845646 -0.0051766 5.89392 
196 1 0.0142696 0.852925 5.87471 
197 1 1.68455 -0.0179691 5.02858 
198 1 2.51962 0.845316 5.04043 
199 1 2.53043 0.0152341 5.86136 
200 1 1.67315 0.841038 5.88729 
201 1 3.36522 -0.00130593 5.03591 
202 1 4.21057 0.833407 5.03617 
203 1 4.20631 -0.013774 5.88603 
204 1 3.37481 0.855492 5.8936 
205 1 5.05218 0.013642 5.05518 
206 1 5.87657 0.845716 5.04364 
207 1 5.87964 -0.0148128 5.8779 
208 1 5.02733 0.849066 5.89738 
209 1 -0.00124969 1.68541 5.03051 
210 1 0.857103 2.52661 5.05615 
211 1 0.835992 1.69649 5.8747 
212 1 -0.00459265 2.52359 5.88451 
213 1 1.67058 1.68767 5.02317 
214 1 2.52132 2.51487 5.02265 
215 1 2.5321 1.66183 5.87769 
216 1 1.67647 2.53585 5.88136 
217 1 3.35909 1.66239 5.04867 
218 1 4.20307 2.51122 5.05746 
219 1 4.19017 1.68066 5.86621 
220 1 3.36539 2.50887 5.86536 
221 1 5.03328 1.66942 5.05012 
222 1 5.87872 2.50401 5.04632 
223 1 5.88952 1.66435 5.8706 
224 1 5.02708 2.52231 5.88772 
225 1 -0.0166497 3.36115 5.02891 
226 1 0.824996 4.19317 5.04718 
227 1 0.832783 3.35548 5.88612 
228 1 -0.00467905 4.19991 5.87267 
229 1 1.68228 3.37203 5.03386 
230 1 2.50569 4.19939 5.03276 
231 1 2.53626 3.37104 5.86757 
232 1 1.66762 4.19015 5.88624 
233 1 3.34182 3.36776 5.04242 
234 1 4.20064 4.19718 5.0464 
235 1 4.17998 3.3676 5.87019 
236 1 3.37432 4.19017 5.86192 
237 1 5.04076 3.34768 5.03786 
238 1 5.87277 4.2143 5.02914 
239 1 5.88758 3.35771 5.86643 
240 1 5.04018 4.18147 5.86008 
241 1 -0.00764856 5.02759 5.02741 
242 1 0.856134 5.8859 5.04532 
243 1 0.849084 5.0437 5.89032 
244 1 -0.0169357 5.88192 5.88591 
245 1 1.68384 5.03503 5.02046 
246 1 2.53245 5.87367 5.04279 
247 1 2.52561 5.05394 5.89494 
248 1 1.66335 5.87137 5.86395 
249 1 3.35145 5.04065 5.04899 
250 1 4.19888 5.89283 5.04868 
251 1 4.19291 5.02133 5.88801 
252 1 3.34421 5.89131 5.89167 
253 1 5.04966 5.05449 5.05395 
254 1 5.88306 5.85972 5.02736 
255 1 5.86325 5.05641 5.88707 
256 1 5.02146 5.89142 5.8781 
ITEM: TIMESTEP
20
ITEM: NUMBER OF ATOMS
256
ITEM: BOX BOUNDS
0 6.71838
0 6.71838
0 6.71838
ITEM: ATOMS id type x y z 
1 1 0.0128075 0.00266054 0.00139938 
2 1 0.817632 0.851004 -0.0138617 
3 1 0.830665 -0.0320117 0.858249 
4 1 0.00304454 0.856477 0.826838 
5 1 1.67758 0.0116824 -0.000671857 
6 1 2.55066 0.847651 0.0315131 
7 1 2.49885 -0.00500753 0.811099 
8 1 1.66627 0.805094 0.805646 
9 1 3.35042 -0.0325404 -0.00945317 
10 1 4.2061 0.829456 0.0249272 
11 1 4.17516 0.0335588 0.857268 
12 1 3.32712 0.831383 0.846471 
13 1 5.01208 0.0194242 0.0146782 
14 1 5.86518 0.823247 0.0255287 
15 1 5.90357 -0.0247609 0.812666 
16 1 5.04131 0.840217 0.836584 
17 1 -0.0330817 1.64807 -0.0332681 
18 1 0.858588 2.52801 0.0216067 
19 1 0.816404 1.70641 0.849909 
20 1 0.015406 2.48897 0.838393 
21 1 1.67624 1.66366 0.00652739 
22 1 2.51447 2.48546 0.0166079 
23 1 2.55203 1.6997 0.840691 
24 1 1.66773 2.50031 0.848858 
25 1 3.37017 1.67082 -0.029442 
26 1 4.1685 2.50678 0.0113366 
27 1 4.18413 1.70136 0.852816 
28 1 3.37724 2.48739 0.819503 
29 1 5.05068 1.71073 0.0236288 
30 1 5.84637 2.53422 0.021196 
31 1 5.90509 1.70845 0.811407 
32 1 5.01212 2.52247 0.819596 
33 1 -0.0147263 3.39003 0.0290154 
34 1 0.843308 4.20915 -0.0262656 
35 1 0.86866 3.37244 0.858678 
36 1 -0.0310632 4.20569 0.818395 
37 1 1.68204 3.38281 0.00698554 
38 1 2.49817 4.23255 0.021153 
39 1 2.49919 3.33183 0.848207 
40 1 1.67532 4.22534 0.846929 
41 1 3.34199 3.39259 0.0236804 
42 1 4.19346 4.23042 -0.0318503 
43 1 4.17952 3.33168 0.865865 
44 1 3.32858 4.2188 0.823439 
45 1 5.02272 3.37163 0.00828072 
46 1 5.86844 4.22655 0.0137868 
47 1 5.89616 3.37693 0.863248 
48 1 5.05737 4.18614 0.853953 
49 1 0.0170175 5.00449 -0.0332359 
50 1 0.825826 5.86739 0.0343267 
51 1 0.860233 5.0102 0.863707 
52 1 -0.0218752 5.86366 0.806062 
53 1 1.66706 5.0738 0.00654924 
54 1 2.53904 5.87008 -0.0121852 
55 1 2.48798 5.01381 0.861345 
56 1 1.67083 5.89115 0.846662 
57 1 3.34444 5.07234 -0.030201 
58 1 4.20526 5.88198 0.0251824 
59 1 4.22908 5.02792 0.846405 
60 1 3.34405 5.84807 0.833625 
61 1 5.06581 5.0666 -0.0104061 
62 1 5.84822 5.8601 -0.00760116 
63 1 5.88423 5.00886 0.854956 
64 1 5.06624 5.84844 0.831616 
65 1 0.00396357 -0.000804828 1.66535 
66 1 0.874468 0.805434 1.70361 
67 1 0.863492 -0.0119241 2.49006 
68 1 0.00210496 0.871865 2.48582 
69 1 1.70043 0.000778822 1.66434 
70 1 2.51542 0.83536 1.66464 
71 1 2.54595 0.0204987 2.53211 
72 1 1.68105 0.833962 2.5041 
73 1 3.35654 -0.0100561 1.65489 
74 1 4.19875 0.873281 1.68322 
75 1 4.16562 0.00360305 2.51799 
76 1 3.35022 0.853383 2.48531 
77 1 5.04125 -0.0205183 1.66413 
78 1 5.84725 0.848157 1.70779 
79 1 5.87782 -0.00122229 2.49417 
80 1 5.00501 0.826478 2.49051 
81 1 0.0244358 1.66717 1.67698 
82 1 0.808258 2.52459 1.70645 
83 1 0.868136 1.69215 2.51415 
84 1 -0.0084124 2.54991 2.53717 
85 1 1.6858 1.70654 1.64848 
86 1 2.54555 2.54445 1.66048 
87 1 2.53243 1.68574 2.52192 
88 1 1.67439 2.54688 2.52677 
89 1 3.37186 1.67608 1.68025 
90 1 4.22418 2.5224 1.66152 
91 1 4.17579 1.67003 2.4949 
92 1 3.39042 2.5092 2.52205 
93 1 5.02447 1.66308 1.66181 
94 1 5.88131 2.54191 1.69863 
95 1 5.89425 1.69487 2.53849 
96 1 5.03366 2.53431 2.53772 
97 1 -0.00918048 3.34988 1.68595 
98 1 0.866944 4.16693 1.67982 
99 1 0.817318 3.36801 2.53392 
100 1 0.00688365 4.19057 2.4896 
101 1 1.71124 3.38662 1.67796 
102 1 2.49782 4.20285 1.68365 
103 1 2.54327 3.33602 2.51698 
104 1 1.69623 4.19884 2.53594 
105 1 3.34302 3.38018 1.68581 
106 1 4.2228 4.23312 1.66229 
107 1 4.2044 3.36104 2.52012 
108 1 3.36226 4.21971 2.50821 
109 1 5.05606 3.35194 1.67799 
110 1 5.85414 4.23178 1.67584 
111 1 5.88694 3.39158 2.50765 
112 1 5.04536 4.20354 2.52861 
113 1 0.0114496 5.02663 1.69219 
114 1 0.812295 5.84419 1.69257 
115 1 0.872479 5.00381 2.53161 
116 1 0.0100596 5.90467 2.4875 
117 1 1.64677 5.06767 1.65152 
118 1 2.53511 5.89853 1.67714 
119 1 2.54316 5.03316 2.54654 
120 1 1.70219 5.85989 2.507 
121 1 3.37819 5.07248 1.71063 
122 1 4.2132 5.88769 1.65601 
123 1 4.22726 5.0724 2.52724 
124 1 3.3304 5.86241 2.49978 
125 1 5.02775 5.0478 1.66676 
126 1 5.88218 5.84351 1.70446 
127 1 5.89979 5.04042 2.55196 
128 1 5.0561 5.89491 2.5146 
129 1 0.0131308 -0.0125973 3.34888 
130 1 0.854855 0.862437 3.35484 
131 1 0.806164 -0.00918484 4.18546 
132 1 0.00177559 0.82594 4.19485 
133 1 1.65213 -0.0294626 3.35901 
134 1 2.54022 0.850543 3.38398 
135 1 2.53965 -0.00780445 4.17374 
136 1 1.68502 0.821697 4.22602 
137 1 3.37646 0.0127081 3.38826 
138 1 4.17504 0.806476 3.34185 
139 1 4.23183 -0.0258878 4.20108 
140 1 3.38342 0.815041 4.17796 
141 1 5.06932 -0.0278029 3.34262 
142 1 5.85966 0.855901 3.34014 
143 1 5.84704 0.00840743 4.17176 
144 1 5.02663 0.859832 4.18284 
145 1 0.0239477 1.64862 3.38541 
146 1 0.852 2.51735 3.34899 
147 1 0.822334 1.66101 4.1939 
148 1 0.000273847 2.54467 4.17303 
149 1 1.6696 1.6623 3.34604 
150 1 2.48627 2.52191 3.33725 
151 1 2.52602 1.66505 4.21116 
152 1 1.66461 2.54791 4.18961 
153 1 3.36361 1.68368 3.33127 
154 1 4.16479 2.51932 3.34255 
155 1 4.17658 1.64417 4.23032 
156 1 3.37553 2.5249 4.22164 
157 1 5.01008 1.64918 3.35225 
158 1 5.89986 2.52989 3.34401 
159 1 5.86202 1.71328 4.21634 
160 1 5.02676 2.531 4.23217 
161 1 0.0307817 3.35908 3.37973 
162 1 0.858399 4.17153 3.38634 
163 1 0.854511 3.34461 4.19737 
164 1 0.0122113 4.20523 4.22856 
165 1 1.67591 3.36366 3.33791 
166 1 2.51359 4.22721 3.37074 
167 1 2.54232 3.35261 4.16839 
168 1 1.6541 4.17727 4.18074 
169 1 3.35338 3.34612 3.36721 
170 1 4.21788 4.17811 3.35401 
171 1 4.16789 3.32946 4.21202 
172 1 3.33941 4.1984 4.18726 
173 1 5.06199 3.32473 3.33681 
174 1 5.90239 4.21772 3.34074 
175 1 5.89075 3.37759 4.22251 
176 1 5.01239 4.21405 4.18719 
177 1 0.0286873 5.01217 3.36879 
178 1 0.818399 5.85094 3.38036 
179 1 0.872417 5.03564 4.19071 
180 1 -0.00871933 5.8736 4.17811 
181 1 1.65285 5.02172 3.37022 
182 1 2.53331 5.85064 3.37481 
183 1 2.50817 5.00506 4.17555 
184 1 1.71604 5.85042 4.21048 
185 1 3.38909 5.03353 3.341 
186 1 4.17657 5.89581 3.3876 
187 1 4.19811 5.02706 4.18713 
188 1 3.34815 5.88571 4.22454 
189 1 5.03418 5.05371 3.38032 
190 1 5.88529 5.86456 3.37888 
191 1 5.8593 5.02565 4.18751 
192 1 5.02797 5.89329 4.18793 
193 1 -0.0170594 0.0310646 5.06525 
194 1 0.863291 0.855962 5.05365 
195 1 0.85033 -0.009845 5.9074 
196 1 0.0268204 0.863474 5.87051 
197 1 1.68994 -0.033338 5.01935 
198 1 2.52011 0.849295 5.04123 
199 1 2.53967 0.0294417 5.84677 
200 1 1.66793 0.842448 5.89481 
201 1 3.3713 -0.00109657 5.03355 
202 1 4.22057 0.825986 5.03494 
203 1 4.21116 -0.0238688 5.89343 
204 1 3.38983 0.866119 5.90649 
205 1 5.0643 0.0257968 5.06932 
206 1 5.87452 0.851282 5.04748 
207 1 5.87961 -0.0269723 5.87893 
208 1 5.01726 0.857406 5.91513 
209 1 -0.00130417 1.69102 5.02269 
210 1 0.870988 2.53429 5.0702 
211 1 0.832917 1.71215 5.87187 
212 1 -0.00887708 2.52743 5.89064 
213 1 1.66328 1.69539 5.00984 
214 1 2.52257 2.51091 5.00865 
215 1 2.5421 1.64648 5.87703 
216 1 1.67564 2.55081 5.88443 
217 1 3.3593 1.6465 5.05639 
218 1 4.20602 2.50404 5.07329 
219 1 4.18376 1.68102 5.85689 
220 1 3.36946 2.49998 5.85396 
221 1 5.02838 1.66052 5.06075 
222 1 5.87826 2.49084 5.0538 
223 1 5.89779 1.6513 5.86435 
224 1 5.01658 2.52494 5.89659 
225 1 -0.0302324 3.36227 5.02084 
226 1 0.812669 4.18778 5.05481 
227 1 0.825335 3.35264 5.89323 
228 1 -0.0100113 4.20067 5.86693 
229 1 1.68493 3.38333 5.02949 
230 1 2.49348 4.20055 5.02694 
231 1 2.55025 3.38135 5.85913 
232 1 1.65773 4.18343 5.89231 
233 1 3.32699 3.37484 5.04356 
234 1 4.20223 4.19568 5.05109 
235 1 4.1634 3.37345 5.86338 
236 1 3.38503 4.18436 5.848 
237 1 5.04227 3.33768 5.0373 
238 1 5.86666 4.22802 5.02099 
239 1 5.8948 3.35667 5.85618 
240 1 5.0419 4.16624 5.84414 
241 1 -0.0137194 5.01909 5.01809 
242 1 0.868135 5.89154 5.04959 
243 1 0.856503 5.04807 5.89897 
244 1 -0.0308271 5.88393 5.89249 
245 1 1.68779 5.03043 5.0053 
246 1 2.54343 5.86917 5.04644 
247 1 2.52924 5.06596 5.90777 
248 1 1.65145 5.86547 5.8523 
249 1 3.34483 5.04201 5.05814 
250 1 4.19847 5.90443 5.05752 
251 1 4.18834 5.00866 5.89498 
252 1 3.33317 5.9026 5.9012 
253 1 5.0572 5.06842 5.06683 
254 1 5.88694 5.84447 5.01659 
255 1 5.85025 5.07112 5.8935 
256 1 5.00678 5.90242 5.87862 
ITEM: TIMESTEP
30
ITEM: NUMBER OF ATOMS
256
ITEM: BOX BOUNDS
0 6.71838
0 6.71838
0 6.71838
ITEM: ATOMS id type x y z 
1 1 0.0169967 0.00420199 0.000750206 
2 1 0.810227 0.85614 -0.0175994 
3 1 0.826367 -0.0437085 0.865331 
4 1 0.00458141 0.86132 0.823771 
5 1 1.67677 0.0117363 -0.0042284 
6 1 2.56013 0.850487 0.0389648 
7 1 2.49379 -0.00962051 0.800721 
8 1 1.65954 0.79518 0.795132 
9 1 3.34874 -0.0401064 -0.00896232 
10 1 4.20488 0.829645 0.0357624 
11 1 4.16651 0.0447064 0.863282 
12 1 3.3195 0.82964 0.850204 
13 1 5.00394 0.0224383 0.0221195 
14 1 5.8602 0.81675 0.0321416 
15 1 5.91074 -0.0346199 0.804575 
16 1 5.04231 0.841832 0.837829 
17 1 -0.043596 1.64061 -0.0439247 
18 1 0.864406 2.53252 0.0288893 
19 1 0.811369 1.71074 0.851926 
20 1 0.0190158 2.48435 0.837298 
21 1 1.67498 1.65751 0.00988217 
22 1 2.51312 2.47404 0.0199806 
23 1 2.56312 1.70418 0.842415 
24 1 1.66409 2.49713 0.85155 
25 1 3.37567 1.66893 -0.0356885 
26 1 4.15803 2.50419 0.0107319 
27 1 4.17981 1.70359 0.855148 
28 1 3.38048 2.47935 0.814443 
29 1 5.05199 1.71857 0.0306988 
30 1 5.83739 2.54463 0.0264938 
31 1 5.9125 1.71717 0.805297 
32 1 5.00354 2.52624 0.815214 
33 1 -0.0195912 3.40006 0.0382329 
34 1 0.844437 4.21174 -0.0319367 
35 1 0.878606 3.37651 0.864826 
36 1 -0.0368102 4.20997 0.815552 
37 1 1.68403 3.39116 0.0114857 
38 1 2.48838 4.24594 0.0263326 
39 1 2.49241 3.3246 0.847855 
40 1 1.67384 4.23111 0.847809 
41 1 3.33455 3.40407 0.0315137 
42 1 4.19235 4.23916 -0.0387066 
43 1 4.17121 3.32578 0.874083 
44 1 3.31813 4.22948 0.820343 
45 1 5.01449 3.37765 0.0111907 
46 1 5.86209 4.2352 0.0145959 
47 1 5.90029 3.38187 0.872554 
48 1 5.06243 4.18165 0.856997 
49 1 0.0206593 4.99441 -0.0437633 
50 1 0.820411 5.86246 0.0459885 
51 1 0.859633 5.00024 0.867583 
52 1 -0.0309824 5.85221 0.795171 
53 1 1.66328 5.08686 0.0108953 
54 1 2.53741 5.87097 -0.0125771 
55 1 2.47713 5.01237 0.869968 
56 1 1.66829 5.89554 0.848642 
57 1 3.34273 5.08056 -0.037774 
58 1 4.20739 5.88243 0.0364123 
59 1 4.23897 5.02555 0.843822 
60 1 3.33858 5.83625 0.831549 
61 1 5.06821 5.07124 -0.0132794 
62 1 5.8409 5.85813 -0.00993294 
63 1 5.88557 5.0031 0.85878 
64 1 5.07736 5.83936 0.830373 
65 1 0.0038027 -0.000234023 1.658 
66 1 0.886746 0.796092 1.70665 
67 1 0.87273 -0.0195746 2.48076 
68 1 0.00514719 0.880685 2.47588 
69 1 1.70997 -0.00203648 1.65903 
70 1 2.51223 0.834685 1.65711 
71 1 2.55596 0.0275699 2.53819 
72 1 1.68651 0.832001 2.50012 
73 1 3.35379 -0.013071 1.64594 
74 1 4.19547 0.880766 1.67929 
75 1 4.15177 0.00186266 2.51434 
76 1 3.34657 0.857132 2.47303 
77 1 5.04264 -0.0278713 1.65565 
78 1 5.83692 0.852099 1.71453 
79 1 5.87933 -0.00109598 2.48525 
80 1 4.99107 0.819694 2.48224 
81 1 0.031688 1.66429 1.67676 
82 1 0.798572 2.52954 1.71691 
83 1 0.878157 1.69693 2.51081 
84 1 -0.00995548 2.55998 2.5448 
85 1 1.68922 1.71421 1.63925 
86 1 2.55656 2.54991 1.65572 
87 1 2.53557 1.68904 2.51949 
88 1 1.67188 2.55733 2.52431 
89 1 3.37374 1.67789 1.67822 
90 1 4.23193 2.52212 1.65966 
91 1 4.17061 1.66786 2.48731 
92 1 3.39888 2.50748 2.51726 
93 1 5.02116 1.6619 1.65483 
94 1 5.88231 2.54737 1.7054 
95 1 5.89911 1.70238 2.54445 
96 1 5.03168 2.53523 2.54064 
97 1 -0.0112935 3.34919 1.68611 
98 1 0.876181 4.1569 1.68275 
99 1 0.811731 3.3718 2.53875 
100 1 0.0110153 4.18796 2.47997 
101 1 1.72165 3.39285 1.68033 
102 1 2.49156 4.20749 1.68697 
103 1 2.55272 3.33026 2.51728 
104 1 1.70403 4.19761 2.54177 
105 1 3.33944 3.3894 1.68654 
106 1 4.23035 4.24316 1.65902 
107 1 4.20612 3.36291 2.5177 
108 1 3.36589 4.22641 2.50462 
109 1 5.06163 3.35114 1.67834 
110 1 5.8469 4.24266 1.6794 
111 1 5.89077 3.40463 2.50373 
112 1 5.04828 4.20723 2.53155 
113 1 0.0159528 5.01912 1.69614 
114 1 0.803645 5.8331 1.69402 
115 1 0.882561 4.98913 2.53561 
116 1 0.0129741 5.91175 2.4807 
117 1 1.63985 5.07616 1.64756 
118 1 2.538 5.90478 1.67403 
119 1 2.54811 5.03055 2.55504 
120 1 1.71181 5.85211 2.50299 
121 1 3.38609 5.08151 1.71804 
122 1 4.21814 5.89163 1.64634 
123 1 4.23926 5.08662 2.53049 
124 1 3.32347 5.86276 2.49804 
125 1 5.02719 5.0527 1.66545 
126 1 5.88478 5.82903 1.7102 
127 1 5.90812 5.04254 2.56328 
128 1 5.06182 5.89921 2.51341 
129 1 0.0162372 -0.0151203 3.34057 
130 1 0.860918 0.865153 3.35105 
131 1 0.795668 -0.0129637 4.18279 
132 1 -0.000253971 0.819986 4.19462 
133 1 1.6426 -0.0420896 3.3596 
134 1 2.5474 0.854386 3.39107 
135 1 2.54557 -0.0110252 4.16685 
136 1 1.68669 0.813397 4.23377 
137 1 3.38026 0.0114305 3.39527 
138 1 4.16946 0.796134 3.33375 
139 1 4.24411 -0.0301182 4.20413 
140 1 3.39274 0.806431 4.17573 
141 1 5.07664 -0.0356314 3.333 
142 1 5.85315 0.860669 3.33149 
143 1 5.83741 0.0128935 4.16394 
144 1 5.02236 0.864333 4.17748 
145 1 0.0300967 1.64055 3.39223 
146 1 0.856136 2.51582 3.34533 
147 1 0.818909 1.65668 4.19407 
148 1 0.00188938 2.55137 4.1659 
149 1 1.66909 1.65749 3.34331 
150 1 2.47595 2.5205 3.33129 
151 1 2.5299 1.66041 4.2136 
152 1 1.66102 2.55674 4.18456 
153 1 3.36506 1.6834 3.32337 
154 1 4.15616 2.51771 3.33975 
155 1 4.16789 1.63362 4.24093 
156 1 3.3797 2.52136 4.23078 
157 1 4.99514 1.64053 3.34743 
158 1 5.90804 2.53423 3.3409 
159 1 5.85536 1.72441 4.22026 
160 1 5.02066 2.5322 4.24304 
161 1 0.0404344 3.36372 3.38698 
162 1 0.861569 4.16172 3.39357 
163 1 0.857502 3.33978 4.19921 
164 1 0.0178617 4.20588 4.23513 
165 1 1.67628 3.36588 3.33061 
166 1 2.51158 4.23211 3.37116 
167 1 2.54663 3.3507 4.15713 
168 1 1.64866 4.16777 4.17637 
169 1 3.35151 3.34229 3.36695 
170 1 4.22344 4.16904 3.35125 
171 1 4.15763 3.32133 4.2186 
172 1 3.3347 4.19795 4.18387 
173 1 5.07051 3.31582 3.33291 
174 1 5.91205 4.22151 3.33694 
175 1 5.89188 3.38519 4.22744 
176 1 5.00424 4.21621 4.18454 
177 1 0.0412413 4.99998 3.37242 
178 1 0.813011 5.84014 3.38455 
179 1 0.880873 5.03279 4.19197 
180 1 -0.0129462 5.86971 4.17364 
181 1 1.64699 5.01574 3.37355 
182 1 2.53979 5.8394 3.38008 
183 1 2.50513 4.99445 4.16946 
184 1 1.73028 5.84062 4.21241 
185 1 3.40164 5.03137 3.33579 
186 1 4.16834 5.90136 3.39538 
187 1 4.19539 5.02488 4.18578 
188 1 3.34639 5.88528 4.23355 
189 1 5.03186 5.06084 3.38535 
190 1 5.88952 5.85834 3.38341 